<?xml version="1.0" encoding="UTF-8"?>

<!-- generated on 2026-04-03T14:19:32.383070-05:00 by Eclipse SUMO GUI 1.26.0
<sumoConfiguration xmlns:xsi="http://www.w3.org/2001/XMLSchema-instance" xsi:noNamespaceSchemaLocation="http://sumo.dlr.de/xsd/sumoConfiguration.xsd">

    <input>
        <net-file value="Dundas_Church.net.xml"/>
        <route-files value="simTraffic/dundas_church_normal_insert.rou.xml,simTraffic/dundas_church_pedestrian.rou.xml"/>
    </input>

    <output>
        <summary-output value="normal_ai_summary.xml"/>
        <tripinfo-output value="normal_ai_tripinfo.xml"/>
        <tripinfo-output.write-unfinished value="true"/>
    </output>

    <time>
        <begin value="0"/>
        <end value="3600"/>
    </time>

    <processing>
        <max-depart-delay value="-1"/>
    </processing>

    <report>
        <duration-log.disable value="true"/>
    </report>

    <traci_server>
        <remote-port value="53541"/>
    </traci_server>

    <random_number>
        <seed value="42"/>
    </random_number>

</sumoConfiguration>
-->

<tripinfos xmlns:xsi="http://www.w3.org/2001/XMLSchema-instance" xsi:noNamespaceSchemaLocation="http://sumo.dlr.de/xsd/tripinfo_file.xsd">
    <tripinfo id="N_through.0" depart="4.00" departLane="E9_1" departPos="167.03" departSpeed="13.00" departDelay="0.64" arrival="19.00" arrivalLane="E8_1" arrivalPos="168.23" arrivalSpeed="12.50" duration="15.00" routeLength="188.98" waitingTime="0.00" waitingCount="0" stopTime="0.00" timeLoss="0.29" rerouteNo="0" devices="tripinfo_N_through.0" vType="toy_car" speedFactor="0.95" vaporized=""/>
    <tripinfo id="S_through.0" depart="5.00" departLane="-E8_1" departPos="168.13" departSpeed="13.00" departDelay="0.22" arrival="20.00" arrivalLane="-E9_1" arrivalPos="167.13" arrivalSpeed="12.91" duration="15.00" routeLength="187.87" waitingTime="0.00" waitingCount="0" stopTime="0.00" timeLoss="0.22" rerouteNo="0" devices="tripinfo_S_through.0" vType="toy_car" speedFactor="1.13" vaporized=""/>
    <tripinfo id="N_left.0" depart="6.00" departLane="E9_2" departPos="158.57" departSpeed="3.39" departDelay="0.49" arrival="33.00" arrivalLane="E7.61_2" arrivalPos="185.68" arrivalSpeed="12.44" duration="27.00" routeLength="213.33" waitingTime="0.00" waitingCount="0" stopTime="0.00" timeLoss="9.30" rerouteNo="0" devices="tripinfo_N_left.0" vType="toy_car" speedFactor="0.92" vaporized=""/>
    <tripinfo id="S_through.1" depart="17.00" departLane="-E8_1" departPos="168.13" departSpeed="9.54" departDelay="0.30" arrival="38.00" arrivalLane="-E9_1" arrivalPos="167.13" arrivalSpeed="9.36" duration="21.00" routeLength="187.87" waitingTime="0.00" waitingCount="0" stopTime="0.00" timeLoss="0.52" rerouteNo="0" devices="tripinfo_S_through.1" vType="toy_car" speedFactor="0.69" vaporized=""/>
    <tripinfo id="S_left.0" depart="20.00" departLane="-E8_2" departPos="168.13" departSpeed="0.00" departDelay="0.53" arrival="41.00" arrivalLane="-E7.68_2" arrivalPos="109.33" arrivalSpeed="12.61" duration="21.00" routeLength="128.76" waitingTime="0.00" waitingCount="0" stopTime="0.00" timeLoss="10.40" rerouteNo="0" devices="tripinfo_S_left.0" vType="toy_car" speedFactor="1.09" vaporized=""/>
    <tripinfo id="S_through.2" depart="25.00" departLane="-E8_1" departPos="168.13" departSpeed="13.00" departDelay="0.50" arrival="41.00" arrivalLane="-E9_1" arrivalPos="167.13" arrivalSpeed="12.72" duration="16.00" routeLength="187.87" waitingTime="0.00" waitingCount="0" stopTime="0.00" timeLoss="1.08" rerouteNo="0" devices="tripinfo_S_through.2" vType="toy_car" speedFactor="1.17" vaporized=""/>
    <tripinfo id="S_through.3" depart="25.00" departLane="-E8_1" departPos="147.53" departSpeed="13.00" departDelay="0.04" arrival="43.00" arrivalLane="-E9_1" arrivalPos="167.13" arrivalSpeed="12.93" duration="18.00" routeLength="208.47" waitingTime="0.00" waitingCount="0" stopTime="0.00" timeLoss="1.29" rerouteNo="0" devices="tripinfo_S_through.3" vType="toy_car" speedFactor="1.13" vaporized=""/>
    <tripinfo id="E_through.0" depart="7.00" departLane="-E7_1" departPos="185.58" departSpeed="0.00" departDelay="0.17" arrival="50.00" arrivalLane="-E7.68_1" arrivalPos="109.33" arrivalSpeed="12.78" duration="43.00" routeLength="130.54" waitingTime="24.00" waitingCount="1" stopTime="0.00" timeLoss="32.06" rerouteNo="0" devices="tripinfo_E_through.0" vType="toy_car" speedFactor="1.02" vaporized=""/>
    <tripinfo id="N_left.1" depart="22.00" departLane="E9_2" departPos="167.03" departSpeed="0.00" departDelay="0.82" arrival="52.00" arrivalLane="E7.61_2" arrivalPos="185.68" arrivalSpeed="12.70" duration="30.00" routeLength="204.87" waitingTime="0.00" waitingCount="0" stopTime="0.00" timeLoss="13.19" rerouteNo="0" devices="tripinfo_N_left.1" vType="toy_car" speedFactor="1.05" vaporized=""/>
    <tripinfo id="E_through.1" depart="22.00" departLane="-E7_1" departPos="86.98" departSpeed="13.00" departDelay="0.64" arrival="52.00" arrivalLane="-E7.68_1" arrivalPos="109.33" arrivalSpeed="12.54" duration="30.00" routeLength="229.14" waitingTime="0.00" waitingCount="0" stopTime="0.00" timeLoss="11.45" rerouteNo="0" devices="tripinfo_E_through.1" vType="toy_car" speedFactor="1.01" vaporized=""/>
    <tripinfo id="W_through.0" depart="20.00" departLane="E7_1" departPos="109.22" departSpeed="0.00" departDelay="0.89" arrival="55.00" arrivalLane="E7.61_1" arrivalPos="185.68" arrivalSpeed="12.53" duration="35.00" routeLength="206.69" waitingTime="11.00" waitingCount="1" stopTime="0.00" timeLoss="18.81" rerouteNo="0" devices="tripinfo_W_through.0" vType="toy_car" speedFactor="1.04" vaporized=""/>
    <tripinfo id="W_through.1" depart="23.00" departLane="E7_1" departPos="10.62" departSpeed="13.00" departDelay="0.34" arrival="57.00" arrivalLane="E7.61_1" arrivalPos="185.68" arrivalSpeed="12.82" duration="34.00" routeLength="305.29" waitingTime="0.00" waitingCount="0" stopTime="0.00" timeLoss="10.45" rerouteNo="0" devices="tripinfo_W_through.1" vType="toy_car" speedFactor="1.25" vaporized=""/>
    <tripinfo id="W_through.2" depart="53.00" departLane="E7_1" departPos="109.22" departSpeed="13.00" departDelay="0.77" arrival="70.00" arrivalLane="E7.61_1" arrivalPos="185.68" arrivalSpeed="12.63" duration="17.00" routeLength="206.69" waitingTime="0.00" waitingCount="0" stopTime="0.00" timeLoss="0.32" rerouteNo="0" devices="tripinfo_W_through.2" vType="toy_car" speedFactor="1.05" vaporized=""/>
    <tripinfo id="E_right.0" depart="48.00" departLane="-E7_1" departPos="185.58" departSpeed="0.00" departDelay="0.64" arrival="71.00" arrivalLane="-E9_1" arrivalPos="167.13" arrivalSpeed="12.83" duration="23.00" routeLength="176.23" waitingTime="0.00" waitingCount="0" stopTime="0.00" timeLoss="8.27" rerouteNo="0" devices="tripinfo_E_right.0" vType="toy_car" speedFactor="1.07" vaporized=""/>
    <tripinfo id="W_through.3" depart="53.00" departLane="E7_1" departPos="88.62" departSpeed="13.00" departDelay="0.69" arrival="72.00" arrivalLane="E7.61_1" arrivalPos="185.68" arrivalSpeed="12.69" duration="19.00" routeLength="227.29" waitingTime="0.00" waitingCount="0" stopTime="0.00" timeLoss="0.58" rerouteNo="0" devices="tripinfo_W_through.3" vType="toy_car" speedFactor="1.22" vaporized=""/>
    <tripinfo id="W_right.0" depart="58.00" departLane="E7_1" departPos="109.22" departSpeed="0.00" departDelay="0.98" arrival="80.00" arrivalLane="E8_1" arrivalPos="168.23" arrivalSpeed="12.61" duration="22.00" routeLength="177.40" waitingTime="0.00" waitingCount="0" stopTime="0.00" timeLoss="6.84" rerouteNo="0" devices="tripinfo_W_right.0" vType="toy_car" speedFactor="0.91" vaporized=""/>
    <tripinfo id="S_through.4" depart="30.00" departLane="-E8_1" departPos="84.86" departSpeed="12.34" departDelay="0.05" arrival="92.00" arrivalLane="-E9_1" arrivalPos="167.13" arrivalSpeed="12.92" duration="62.00" routeLength="271.14" waitingTime="30.00" waitingCount="1" stopTime="0.00" timeLoss="40.57" rerouteNo="0" devices="tripinfo_S_through.4" vType="toy_car" speedFactor="1.10" vaporized=""/>
    <tripinfo id="N_through.1" depart="46.00" departLane="E9_1" departPos="167.03" departSpeed="0.00" departDelay="0.66" arrival="93.00" arrivalLane="E8_1" arrivalPos="168.23" arrivalSpeed="12.61" duration="47.00" routeLength="188.98" waitingTime="23.00" waitingCount="1" stopTime="0.00" timeLoss="31.76" rerouteNo="0" devices="tripinfo_N_through.1" vType="toy_car" speedFactor="0.92" vaporized=""/>
    <tripinfo id="S_through.5" depart="33.00" departLane="-E8_1" departPos="96.62" departSpeed="11.38" departDelay="0.24" arrival="95.00" arrivalLane="-E9_1" arrivalPos="167.13" arrivalSpeed="12.51" duration="62.00" routeLength="259.38" waitingTime="28.00" waitingCount="1" stopTime="0.00" timeLoss="41.18" rerouteNo="0" devices="tripinfo_S_through.5" vType="toy_car" speedFactor="1.00" vaporized=""/>
    <tripinfo id="S_through.6" depart="34.00" departLane="-E8_1" departPos="80.22" departSpeed="12.69" departDelay="0.27" arrival="97.00" arrivalLane="-E9_1" arrivalPos="167.13" arrivalSpeed="12.75" duration="63.00" routeLength="275.78" waitingTime="27.00" waitingCount="1" stopTime="0.00" timeLoss="41.11" rerouteNo="0" devices="tripinfo_S_through.6" vType="toy_car" speedFactor="0.97" vaporized=""/>
    <tripinfo id="S_through.7" depart="58.00" departLane="-E8_1" departPos="59.46" departSpeed="12.55" departDelay="0.53" arrival="99.00" arrivalLane="-E9_1" arrivalPos="167.13" arrivalSpeed="12.41" duration="41.00" routeLength="296.54" waitingTime="1.00" waitingCount="1" stopTime="0.00" timeLoss="16.64" rerouteNo="0" devices="tripinfo_S_through.7" vType="toy_car" speedFactor="0.90" vaporized=""/>
    <tripinfo id="S_through.8" depart="65.00" departLane="-E8_1" departPos="46.07" departSpeed="13.00" departDelay="0.14" arrival="101.00" arrivalLane="-E9_1" arrivalPos="167.13" arrivalSpeed="12.87" duration="36.00" routeLength="309.93" waitingTime="0.00" waitingCount="0" stopTime="0.00" timeLoss="11.24" rerouteNo="0" devices="tripinfo_S_through.8" vType="toy_car" speedFactor="0.96" vaporized=""/>
    <tripinfo id="S_through.9" depart="73.00" departLane="-E8_1" departPos="38.49" departSpeed="13.00" departDelay="0.61" arrival="103.00" arrivalLane="-E9_1" arrivalPos="167.13" arrivalSpeed="12.67" duration="30.00" routeLength="317.51" waitingTime="0.00" waitingCount="0" stopTime="0.00" timeLoss="4.80" rerouteNo="0" devices="tripinfo_S_through.9" vType="toy_car" speedFactor="1.08" vaporized=""/>
    <tripinfo id="S_through.10" depart="86.00" departLane="-E8_1" departPos="98.83" departSpeed="13.00" departDelay="0.75" arrival="107.00" arrivalLane="-E9_1" arrivalPos="167.13" arrivalSpeed="12.94" duration="21.00" routeLength="257.17" waitingTime="0.00" waitingCount="0" stopTime="0.00" timeLoss="0.43" rerouteNo="0" devices="tripinfo_S_through.10" vType="toy_car" speedFactor="1.05" vaporized=""/>
    <tripinfo id="N_right.0" depart="89.00" departLane="E9_1" departPos="167.03" departSpeed="0.00" departDelay="0.61" arrival="108.00" arrivalLane="-E7.68_1" arrivalPos="109.33" arrivalSpeed="11.97" duration="19.00" routeLength="118.77" waitingTime="0.00" waitingCount="0" stopTime="0.00" timeLoss="8.24" rerouteNo="0" devices="tripinfo_N_right.0" vType="toy_car" speedFactor="0.89" vaporized=""/>
    <tripinfo id="N_left.2" depart="69.00" departLane="E9_2" departPos="167.03" departSpeed="0.00" departDelay="0.97" arrival="116.00" arrivalLane="E7.61_2" arrivalPos="185.68" arrivalSpeed="12.51" duration="47.00" routeLength="204.87" waitingTime="17.00" waitingCount="1" stopTime="0.00" timeLoss="29.47" rerouteNo="0" devices="tripinfo_N_left.2" vType="toy_car" speedFactor="0.93" vaporized=""/>
    <tripinfo id="E_through.2" depart="73.00" departLane="-E7_1" departPos="97.16" departSpeed="12.73" departDelay="0.25" arrival="122.00" arrivalLane="-E7.68_1" arrivalPos="109.33" arrivalSpeed="12.97" duration="49.00" routeLength="218.96" waitingTime="21.00" waitingCount="1" stopTime="0.00" timeLoss="31.56" rerouteNo="0" devices="tripinfo_E_through.2" vType="toy_car" speedFactor="1.04" vaporized=""/>
    <tripinfo id="W_through.4" depart="70.00" departLane="E7_1" departPos="22.32" departSpeed="12.62" departDelay="0.24" arrival="127.00" arrivalLane="E7.61_1" arrivalPos="185.68" arrivalSpeed="12.70" duration="57.00" routeLength="293.59" waitingTime="24.00" waitingCount="1" stopTime="0.00" timeLoss="34.12" rerouteNo="0" devices="tripinfo_W_through.4" vType="toy_car" speedFactor="1.04" vaporized=""/>
    <tripinfo id="E_through.3" depart="123.00" departLane="-E7_1" departPos="185.58" departSpeed="13.00" departDelay="0.36" arrival="134.00" arrivalLane="-E7.68_1" arrivalPos="109.33" arrivalSpeed="12.90" duration="11.00" routeLength="130.54" waitingTime="0.00" waitingCount="0" stopTime="0.00" timeLoss="0.28" rerouteNo="0" devices="tripinfo_E_through.3" vType="toy_car" speedFactor="1.00" vaporized=""/>
    <tripinfo id="W_through.5" depart="121.00" departLane="E7_1" departPos="109.22" departSpeed="12.88" departDelay="0.30" arrival="138.00" arrivalLane="E7.61_1" arrivalPos="185.68" arrivalSpeed="12.68" duration="17.00" routeLength="206.69" waitingTime="0.00" waitingCount="0" stopTime="0.00" timeLoss="0.36" rerouteNo="0" devices="tripinfo_W_through.5" vType="toy_car" speedFactor="0.93" vaporized=""/>
    <tripinfo id="S_through.11" depart="105.00" departLane="-E8_1" departPos="81.93" departSpeed="12.56" departDelay="0.85" arrival="158.00" arrivalLane="-E9_1" arrivalPos="167.13" arrivalSpeed="12.54" duration="53.00" routeLength="274.07" waitingTime="21.00" waitingCount="1" stopTime="0.00" timeLoss="31.41" rerouteNo="0" devices="tripinfo_S_through.11" vType="toy_car" speedFactor="1.23" vaporized=""/>
    <tripinfo id="S_through.12" depart="112.00" departLane="-E8_1" departPos="84.53" departSpeed="12.36" departDelay="0.33" arrival="160.00" arrivalLane="-E9_1" arrivalPos="167.13" arrivalSpeed="12.62" duration="48.00" routeLength="271.47" waitingTime="12.00" waitingCount="1" stopTime="0.00" timeLoss="26.70" rerouteNo="0" devices="tripinfo_S_through.12" vType="toy_car" speedFactor="1.05" vaporized=""/>
    <tripinfo id="S_through.13" depart="126.00" departLane="-E8_1" departPos="61.13" departSpeed="13.00" departDelay="0.29" arrival="162.00" arrivalLane="-E9_1" arrivalPos="167.13" arrivalSpeed="12.96" duration="36.00" routeLength="294.87" waitingTime="0.00" waitingCount="0" stopTime="0.00" timeLoss="12.71" rerouteNo="0" devices="tripinfo_S_through.13" vType="toy_car" speedFactor="1.07" vaporized=""/>
    <tripinfo id="N_right.1" depart="147.00" departLane="E9_1" departPos="167.03" departSpeed="0.00" departDelay="0.58" arrival="164.00" arrivalLane="-E7.68_1" arrivalPos="109.33" arrivalSpeed="12.95" duration="17.00" routeLength="118.77" waitingTime="0.00" waitingCount="0" stopTime="0.00" timeLoss="6.95" rerouteNo="0" devices="tripinfo_N_right.1" vType="toy_car" speedFactor="0.95" vaporized=""/>
    <tripinfo id="S_through.14" depart="145.00" departLane="-E8_1" departPos="92.29" departSpeed="13.00" departDelay="0.44" arrival="166.00" arrivalLane="-E9_1" arrivalPos="167.13" arrivalSpeed="12.52" duration="21.00" routeLength="263.71" waitingTime="0.00" waitingCount="0" stopTime="0.00" timeLoss="0.47" rerouteNo="0" devices="tripinfo_S_through.14" vType="toy_car" speedFactor="1.00" vaporized=""/>
    <tripinfo id="N_through.2" depart="151.00" departLane="E9_1" departPos="81.86" departSpeed="13.00" departDelay="0.05" arrival="173.00" arrivalLane="E8_1" arrivalPos="168.23" arrivalSpeed="12.58" duration="22.00" routeLength="274.15" waitingTime="0.00" waitingCount="0" stopTime="0.00" timeLoss="0.46" rerouteNo="0" devices="tripinfo_N_through.2" vType="toy_car" speedFactor="0.96" vaporized=""/>
    <tripinfo id="N_left.3" depart="139.00" departLane="E9_2" departPos="91.00" departSpeed="11.76" departDelay="0.63" arrival="177.00" arrivalLane="E7.61_2" arrivalPos="185.68" arrivalSpeed="12.55" duration="38.00" routeLength="280.90" waitingTime="0.00" waitingCount="0" stopTime="0.00" timeLoss="15.10" rerouteNo="0" devices="tripinfo_N_left.3" vType="toy_car" speedFactor="0.93" vaporized=""/>
    <tripinfo id="N_left.4" depart="142.00" departLane="E9_2" departPos="77.79" departSpeed="12.80" departDelay="0.73" arrival="180.00" arrivalLane="E7.61_2" arrivalPos="185.68" arrivalSpeed="12.66" duration="38.00" routeLength="294.11" waitingTime="0.00" waitingCount="0" stopTime="0.00" timeLoss="14.52" rerouteNo="0" devices="tripinfo_N_left.4" vType="toy_car" speedFactor="1.04" vaporized=""/>
    <tripinfo id="E_through.4" depart="164.00" departLane="-E7_1" departPos="185.58" departSpeed="0.00" departDelay="0.80" arrival="185.00" arrivalLane="-E7.68_1" arrivalPos="109.33" arrivalSpeed="12.58" duration="21.00" routeLength="130.54" waitingTime="3.00" waitingCount="1" stopTime="0.00" timeLoss="10.70" rerouteNo="0" devices="tripinfo_E_through.4" vType="toy_car" speedFactor="1.00" vaporized=""/>
    <personinfo id="ped_W_to_E.1" depart="10.00" type="pedType" speedFactor="1.04" duration="178.00" waitingTime="4.00" timeLoss="23.26" traveltime="178.00">
        <walk depart="10.00" departPos="0.00" arrival="188.00" arrivalPos="92.84" duration="178.00" routeLength="223.50" timeLoss="23.26" maxSpeed="1.44" waitingTime="4.00"/>
    </personinfo>
    <tripinfo id="E_through.5" depart="173.00" departLane="-E7_1" departPos="125.90" departSpeed="12.00" departDelay="0.99" arrival="190.00" arrivalLane="-E7.68_1" arrivalPos="109.33" arrivalSpeed="11.69" duration="17.00" routeLength="190.22" waitingTime="0.00" waitingCount="0" stopTime="0.00" timeLoss="0.39" rerouteNo="0" devices="tripinfo_E_through.5" vType="toy_car" speedFactor="0.86" vaporized=""/>
    <personinfo id="ped_W_to_E.0" depart="0.00" type="pedType" speedFactor="1.00" duration="192.00" waitingTime="11.00" timeLoss="30.79" traveltime="192.00">
        <walk depart="0.00" departPos="0.00" arrival="192.00" arrivalPos="92.84" duration="192.00" routeLength="223.50" timeLoss="30.79" maxSpeed="1.39" waitingTime="11.00"/>
    </personinfo>
    <tripinfo id="W_through.6" depart="141.00" departLane="E7_1" departPos="109.22" departSpeed="0.00" departDelay="0.04" arrival="192.00" arrivalLane="E7.61_1" arrivalPos="185.68" arrivalSpeed="12.62" duration="51.00" routeLength="206.69" waitingTime="26.00" waitingCount="1" stopTime="0.00" timeLoss="34.48" rerouteNo="0" devices="tripinfo_W_through.6" vType="toy_car" speedFactor="1.01" vaporized=""/>
    <personinfo id="ped_W_to_E.2" depart="20.00" type="pedType" speedFactor="1.04" duration="173.00" waitingTime="0.00" timeLoss="18.12" traveltime="173.00">
        <walk depart="20.00" departPos="0.00" arrival="193.00" arrivalPos="92.84" duration="173.00" routeLength="223.50" timeLoss="18.12" maxSpeed="1.44" waitingTime="0.00"/>
    </personinfo>
    <personinfo id="ped_W_to_E.4" depart="39.00" type="pedType" speedFactor="1.16" duration="156.00" waitingTime="0.00" timeLoss="17.86" traveltime="156.00">
        <walk depart="39.00" departPos="0.00" arrival="195.00" arrivalPos="92.84" duration="156.00" routeLength="223.50" timeLoss="17.86" maxSpeed="1.62" waitingTime="0.00"/>
    </personinfo>
    <tripinfo id="W_right.1" depart="142.00" departLane="E7_1" departPos="22.49" departSpeed="12.09" departDelay="0.99" arrival="199.00" arrivalLane="E8_1" arrivalPos="168.23" arrivalSpeed="11.81" duration="57.00" routeLength="264.13" waitingTime="15.00" waitingCount="2" stopTime="0.00" timeLoss="34.45" rerouteNo="0" devices="tripinfo_W_right.1" vType="toy_car" speedFactor="0.87" vaporized=""/>
    <tripinfo id="W_through.7" depart="152.00" departLane="E7_1" departPos="2.96" departSpeed="13.00" departDelay="0.72" arrival="204.00" arrivalLane="E7.61_1" arrivalPos="185.68" arrivalSpeed="12.60" duration="52.00" routeLength="312.95" waitingTime="5.00" waitingCount="2" stopTime="0.00" timeLoss="27.09" rerouteNo="0" devices="tripinfo_W_through.7" vType="toy_car" speedFactor="1.12" vaporized=""/>
    <personinfo id="ped_W_to_E.3" depart="29.00" type="pedType" speedFactor="1.02" duration="176.00" waitingTime="0.00" timeLoss="18.84" traveltime="176.00">
        <walk depart="29.00" departPos="0.00" arrival="205.00" arrivalPos="92.84" duration="176.00" routeLength="223.50" timeLoss="18.84" maxSpeed="1.42" waitingTime="0.00"/>
    </personinfo>
    <tripinfo id="W_through.8" depart="172.00" departLane="E7_1" departPos="1.44" departSpeed="12.92" departDelay="4.14" arrival="206.00" arrivalLane="E7.61_1" arrivalPos="185.68" arrivalSpeed="12.62" duration="34.00" routeLength="314.47" waitingTime="0.00" waitingCount="0" stopTime="0.00" timeLoss="8.78" rerouteNo="0" devices="tripinfo_W_through.8" vType="toy_car" speedFactor="0.93" vaporized=""/>
    <personinfo id="ped_N_to_S.2" depart="20.00" type="pedType" speedFactor="1.16" duration="189.00" waitingTime="0.00" timeLoss="20.07" traveltime="189.00">
        <walk depart="20.00" departPos="0.00" arrival="209.00" arrivalPos="84.11" duration="189.00" routeLength="272.59" timeLoss="20.07" maxSpeed="1.61" waitingTime="0.00"/>
    </personinfo>
    <tripinfo id="W_through.9" depart="182.00" departLane="E7_1" departPos="1.15" departSpeed="13.00" departDelay="13.97" arrival="209.00" arrivalLane="E7.61_1" arrivalPos="185.68" arrivalSpeed="12.96" duration="27.00" routeLength="314.76" waitingTime="0.00" waitingCount="0" stopTime="0.00" timeLoss="1.87" rerouteNo="0" devices="tripinfo_W_through.9" vType="toy_car" speedFactor="0.96" vaporized=""/>
    <tripinfo id="W_through.10" depart="186.00" departLane="E7_1" departPos="4.27" departSpeed="13.00" departDelay="10.13" arrival="211.00" arrivalLane="E7.61_1" arrivalPos="185.68" arrivalSpeed="12.76" duration="25.00" routeLength="311.64" waitingTime="0.00" waitingCount="0" stopTime="0.00" timeLoss="0.71" rerouteNo="0" devices="tripinfo_W_through.10" vType="toy_car" speedFactor="0.99" vaporized=""/>
    <personinfo id="ped_E_to_W.2" depart="20.00" type="pedType" speedFactor="1.10" duration="199.00" waitingTime="7.00" timeLoss="26.99" traveltime="199.00">
        <walk depart="20.00" departPos="0.00" arrival="219.00" arrivalPos="54.66" duration="199.00" routeLength="262.01" timeLoss="26.99" maxSpeed="1.52" waitingTime="7.00"/>
    </personinfo>
    <tripinfo id="N_right.2" depart="169.00" departLane="E9_1" departPos="68.43" departSpeed="13.00" departDelay="0.82" arrival="226.00" arrivalLane="-E7.68_1" arrivalPos="109.33" arrivalSpeed="12.63" duration="57.00" routeLength="217.37" waitingTime="22.00" waitingCount="1" stopTime="0.00" timeLoss="39.29" rerouteNo="0" devices="tripinfo_N_right.2" vType="toy_car" speedFactor="0.96" vaporized=""/>
    <tripinfo id="S_through.15" depart="182.00" departLane="-E8_1" departPos="83.00" departSpeed="12.48" departDelay="0.65" arrival="227.00" arrivalLane="-E9_1" arrivalPos="167.13" arrivalSpeed="12.51" duration="45.00" routeLength="273.00" waitingTime="13.00" waitingCount="1" stopTime="0.00" timeLoss="23.46" rerouteNo="0" devices="tripinfo_S_through.15" vType="toy_car" speedFactor="1.03" vaporized=""/>
    <tripinfo id="N_through.3" depart="164.00" departLane="E9_1" departPos="167.03" departSpeed="0.00" departDelay="5.96" arrival="228.00" arrivalLane="E8_1" arrivalPos="168.23" arrivalSpeed="12.17" duration="64.00" routeLength="188.98" waitingTime="40.00" waitingCount="1" stopTime="0.00" timeLoss="48.58" rerouteNo="0" devices="tripinfo_N_through.3" vType="toy_car" speedFactor="0.89" vaporized=""/>
    <personinfo id="ped_N_to_S.0" depart="0.00" type="pedType" speedFactor="0.95" duration="230.00" waitingTime="0.00" timeLoss="23.04" traveltime="230.00">
        <walk depart="0.00" departPos="0.00" arrival="230.00" arrivalPos="84.11" duration="230.00" routeLength="272.59" timeLoss="23.04" maxSpeed="1.32" waitingTime="0.00"/>
    </personinfo>
    <personinfo id="ped_N_to_S.1" depart="10.00" type="pedType" speedFactor="1.07" duration="220.00" waitingTime="0.00" timeLoss="36.94" traveltime="220.00">
        <walk depart="10.00" departPos="0.00" arrival="230.00" arrivalPos="84.11" duration="220.00" routeLength="272.59" timeLoss="36.94" maxSpeed="1.49" waitingTime="0.00"/>
    </personinfo>
    <personinfo id="ped_S_to_N.0" depart="0.00" type="pedType" speedFactor="0.95" duration="231.00" waitingTime="0.00" timeLoss="23.43" traveltime="231.00">
        <walk depart="0.00" departPos="0.00" arrival="231.00" arrivalPos="83.56" duration="231.00" routeLength="272.93" timeLoss="23.43" maxSpeed="1.31" waitingTime="0.00"/>
    </personinfo>
    <tripinfo id="N_through.4" depart="173.00" departLane="E9_1" departPos="57.33" departSpeed="13.00" departDelay="0.78" arrival="234.00" arrivalLane="E8_1" arrivalPos="168.23" arrivalSpeed="12.63" duration="61.00" routeLength="298.68" waitingTime="19.00" waitingCount="1" stopTime="0.00" timeLoss="37.10" rerouteNo="0" devices="tripinfo_N_through.4" vType="toy_car" speedFactor="1.12" vaporized=""/>
    <tripinfo id="N_through.5" depart="175.00" departLane="E9_1" departPos="49.35" departSpeed="13.00" departDelay="0.55" arrival="235.00" arrivalLane="E8_1" arrivalPos="168.23" arrivalSpeed="12.59" duration="60.00" routeLength="306.66" waitingTime="17.00" waitingCount="1" stopTime="0.00" timeLoss="36.23" rerouteNo="0" devices="tripinfo_N_through.5" vType="toy_car" speedFactor="1.14" vaporized=""/>
    <tripinfo id="N_through.6" depart="181.00" departLane="E9_1" departPos="47.86" departSpeed="12.58" departDelay="0.87" arrival="237.00" arrivalLane="E8_1" arrivalPos="168.23" arrivalSpeed="12.39" duration="56.00" routeLength="308.15" waitingTime="12.00" waitingCount="1" stopTime="0.00" timeLoss="31.37" rerouteNo="0" devices="tripinfo_N_through.6" vType="toy_car" speedFactor="0.91" vaporized=""/>
    <tripinfo id="S_left.1" depart="172.00" departLane="-E8_2" departPos="168.13" departSpeed="0.00" departDelay="0.24" arrival="240.00" arrivalLane="-E7.68_2" arrivalPos="109.33" arrivalSpeed="12.55" duration="68.00" routeLength="128.76" waitingTime="44.00" waitingCount="2" stopTime="0.00" timeLoss="57.44" rerouteNo="0" devices="tripinfo_S_left.1" vType="toy_car" speedFactor="1.09" vaporized=""/>
    <personinfo id="ped_E_to_W.1" depart="10.00" type="pedType" speedFactor="0.98" duration="232.00" waitingTime="0.00" timeLoss="38.82" traveltime="232.00">
        <walk depart="10.00" departPos="0.00" arrival="242.00" arrivalPos="54.66" duration="232.00" routeLength="262.01" timeLoss="38.82" maxSpeed="1.36" waitingTime="0.00"/>
    </personinfo>
    <personinfo id="ped_W_to_E.7" depart="67.00" type="pedType" speedFactor="1.19" duration="176.00" waitingTime="23.00" timeLoss="40.21" traveltime="176.00">
        <walk depart="67.00" departPos="0.00" arrival="243.00" arrivalPos="92.84" duration="176.00" routeLength="223.50" timeLoss="40.21" maxSpeed="1.65" waitingTime="23.00"/>
    </personinfo>
    <tripinfo id="N_right.3" depart="216.00" departLane="E9_1" departPos="57.04" departSpeed="13.00" departDelay="0.70" arrival="245.00" arrivalLane="-E7.68_1" arrivalPos="109.33" arrivalSpeed="12.72" duration="29.00" routeLength="228.76" waitingTime="0.00" waitingCount="0" stopTime="0.00" timeLoss="10.65" rerouteNo="0" devices="tripinfo_N_right.3" vType="toy_car" speedFactor="1.15" vaporized=""/>
    <tripinfo id="N_through.7" depart="221.00" departLane="E9_1" departPos="70.85" departSpeed="13.00" departDelay="0.55" arrival="252.00" arrivalLane="E8_1" arrivalPos="168.23" arrivalSpeed="12.98" duration="31.00" routeLength="285.16" waitingTime="0.00" waitingCount="0" stopTime="0.00" timeLoss="8.10" rerouteNo="0" devices="tripinfo_N_through.7" vType="toy_car" speedFactor="0.98" vaporized=""/>
    <personinfo id="ped_E_to_W.0" depart="0.00" type="pedType" speedFactor="0.83" duration="253.00" waitingTime="0.00" timeLoss="24.75" traveltime="253.00">
        <walk depart="0.00" departPos="0.00" arrival="253.00" arrivalPos="54.66" duration="253.00" routeLength="262.01" timeLoss="24.75" maxSpeed="1.15" waitingTime="0.00"/>
    </personinfo>
    <personinfo id="ped_W_to_E.5" depart="48.00" type="pedType" speedFactor="1.05" duration="205.00" waitingTime="31.00" timeLoss="51.66" traveltime="205.00">
        <walk depart="48.00" departPos="0.00" arrival="253.00" arrivalPos="92.84" duration="205.00" routeLength="223.50" timeLoss="51.66" maxSpeed="1.46" waitingTime="31.00"/>
    </personinfo>
    <tripinfo id="N_through.8" depart="227.00" departLane="E9_1" departPos="63.56" departSpeed="13.00" departDelay="0.93" arrival="254.00" arrivalLane="E8_1" arrivalPos="168.23" arrivalSpeed="12.99" duration="27.00" routeLength="292.45" waitingTime="0.00" waitingCount="0" stopTime="0.00" timeLoss="3.92" rerouteNo="0" devices="tripinfo_N_through.8" vType="toy_car" speedFactor="1.09" vaporized=""/>
    <personinfo id="ped_W_to_E.6" depart="58.00" type="pedType" speedFactor="0.90" duration="208.00" waitingTime="8.00" timeLoss="28.54" traveltime="208.00">
        <walk depart="58.00" departPos="0.00" arrival="266.00" arrivalPos="92.84" duration="208.00" routeLength="223.50" timeLoss="28.54" maxSpeed="1.25" waitingTime="8.00"/>
    </personinfo>
    <personinfo id="ped_W_to_E.8" depart="77.00" type="pedType" speedFactor="0.92" duration="192.00" waitingTime="0.00" timeLoss="17.64" traveltime="192.00">
        <walk depart="77.00" departPos="0.00" arrival="269.00" arrivalPos="92.84" duration="192.00" routeLength="223.50" timeLoss="17.64" maxSpeed="1.28" waitingTime="0.00"/>
    </personinfo>
    <personinfo id="ped_W_to_E.9" depart="86.00" type="pedType" speedFactor="1.04" duration="184.00" waitingTime="1.00" timeLoss="30.01" traveltime="184.00">
        <walk depart="86.00" departPos="0.00" arrival="270.00" arrivalPos="92.84" duration="184.00" routeLength="223.50" timeLoss="30.01" maxSpeed="1.45" waitingTime="1.00"/>
    </personinfo>