<?xml version="1.0" encoding="UTF-8"?>

<!-- generated on 2026-04-03T14:19:15.435767-05:00 by Eclipse SUMO GUI 1.26.0
<sumoConfiguration xmlns:xsi="http://www.w3.org/2001/XMLSchema-instance" xsi:noNamespaceSchemaLocation="http://sumo.dlr.de/xsd/sumoConfiguration.xsd">

    <input>
        <net-file value="Dundas_Church.net.xml"/>
        <route-files value="simTraffic/dundas_church_normal_insert.rou.xml,simTraffic/dundas_church_pedestrian.rou.xml"/>
    </input>

    <output>
        <summary-output value="normal_fixed_summary.xml"/>
        <tripinfo-output value="normal_fixed_tripinfo.xml"/>
        <tripinfo-output.write-unfinished value="true"/>
    </output>

    <time>
        <begin value="0"/>
        <end value="3600"/>
    </time>

    <processing>
        <max-depart-delay value="-1"/>
    </processing>

    <report>
        <duration-log.disable value="true"/>
    </report>

    <traci_server>
        <remote-port value="49814"/>
    </traci_server>

    <random_number>
        <seed value="42"/>
    </random_number>

</sumoConfiguration>
-->

<tripinfos xmlns:xsi="http://www.w3.org/2001/XMLSchema-instance" xsi:noNamespaceSchemaLocation="http://sumo.dlr.de/xsd/tripinfo_file.xsd">
    <tripinfo id="N_through.0" depart="4.00" departLane="E9_1" departPos="167.03" departSpeed="13.00" departDelay="0.64" arrival="19.00" arrivalLane="E8_1" arrivalPos="168.23" arrivalSpeed="12.50" duration="15.00" routeLength="188.98" waitingTime="0.00" waitingCount="0" stopTime="0.00" timeLoss="0.29" rerouteNo="0" devices="tripinfo_N_through.0" vType="toy_car" speedFactor="0.95" vaporized=""/>
    <tripinfo id="S_through.0" depart="5.00" departLane="-E8_1" departPos="168.13" departSpeed="13.00" departDelay="0.22" arrival="20.00" arrivalLane="-E9_1" arrivalPos="167.13" arrivalSpeed="12.91" duration="15.00" routeLength="187.87" waitingTime="0.00" waitingCount="0" stopTime="0.00" timeLoss="0.22" rerouteNo="0" devices="tripinfo_S_through.0" vType="toy_car" speedFactor="1.13" vaporized=""/>
    <tripinfo id="N_left.0" depart="6.00" departLane="E9_2" departPos="158.57" departSpeed="3.39" departDelay="0.49" arrival="33.00" arrivalLane="E7.61_2" arrivalPos="185.68" arrivalSpeed="12.44" duration="27.00" routeLength="213.33" waitingTime="0.00" waitingCount="0" stopTime="0.00" timeLoss="9.30" rerouteNo="0" devices="tripinfo_N_left.0" vType="toy_car" speedFactor="0.92" vaporized=""/>
    <tripinfo id="S_through.1" depart="17.00" departLane="-E8_1" departPos="168.13" departSpeed="9.54" departDelay="0.30" arrival="38.00" arrivalLane="-E9_1" arrivalPos="167.13" arrivalSpeed="9.36" duration="21.00" routeLength="187.87" waitingTime="0.00" waitingCount="0" stopTime="0.00" timeLoss="0.52" rerouteNo="0" devices="tripinfo_S_through.1" vType="toy_car" speedFactor="0.69" vaporized=""/>
    <tripinfo id="S_left.0" depart="20.00" departLane="-E8_2" departPos="168.13" departSpeed="0.00" departDelay="0.53" arrival="41.00" arrivalLane="-E7.68_2" arrivalPos="109.33" arrivalSpeed="12.61" duration="21.00" routeLength="128.76" waitingTime="0.00" waitingCount="0" stopTime="0.00" timeLoss="10.40" rerouteNo="0" devices="tripinfo_S_left.0" vType="toy_car" speedFactor="1.09" vaporized=""/>
    <tripinfo id="S_through.2" depart="25.00" departLane="-E8_1" departPos="168.13" departSpeed="13.00" departDelay="0.50" arrival="41.00" arrivalLane="-E9_1" arrivalPos="167.13" arrivalSpeed="12.72" duration="16.00" routeLength="187.87" waitingTime="0.00" waitingCount="0" stopTime="0.00" timeLoss="1.08" rerouteNo="0" devices="tripinfo_S_through.2" vType="toy_car" speedFactor="1.17" vaporized=""/>
    <tripinfo id="S_through.3" depart="25.00" departLane="-E8_1" departPos="147.53" departSpeed="13.00" departDelay="0.04" arrival="43.00" arrivalLane="-E9_1" arrivalPos="167.13" arrivalSpeed="12.93" duration="18.00" routeLength="208.47" waitingTime="0.00" waitingCount="0" stopTime="0.00" timeLoss="1.29" rerouteNo="0" devices="tripinfo_S_through.3" vType="toy_car" speedFactor="1.13" vaporized=""/>
    <tripinfo id="E_through.0" depart="7.00" departLane="-E7_1" departPos="185.58" departSpeed="0.00" departDelay="0.17" arrival="49.00" arrivalLane="-E7.68_1" arrivalPos="109.33" arrivalSpeed="12.78" duration="42.00" routeLength="130.54" waitingTime="23.00" waitingCount="1" stopTime="0.00" timeLoss="31.03" rerouteNo="0" devices="tripinfo_E_through.0" vType="toy_car" speedFactor="1.02" vaporized=""/>
    <tripinfo id="E_through.1" depart="22.00" departLane="-E7_1" departPos="86.98" departSpeed="13.00" departDelay="0.64" arrival="50.00" arrivalLane="-E7.68_1" arrivalPos="109.33" arrivalSpeed="12.52" duration="28.00" routeLength="229.14" waitingTime="0.00" waitingCount="0" stopTime="0.00" timeLoss="10.36" rerouteNo="0" devices="tripinfo_E_through.1" vType="toy_car" speedFactor="1.01" vaporized=""/>
    <tripinfo id="N_left.1" depart="22.00" departLane="E9_2" departPos="167.03" departSpeed="0.00" departDelay="0.82" arrival="52.00" arrivalLane="E7.61_2" arrivalPos="185.68" arrivalSpeed="12.70" duration="30.00" routeLength="204.87" waitingTime="0.00" waitingCount="0" stopTime="0.00" timeLoss="13.19" rerouteNo="0" devices="tripinfo_N_left.1" vType="toy_car" speedFactor="1.05" vaporized=""/>
    <tripinfo id="W_through.0" depart="20.00" departLane="E7_1" departPos="109.22" departSpeed="0.00" departDelay="0.89" arrival="54.00" arrivalLane="E7.61_1" arrivalPos="185.68" arrivalSpeed="12.53" duration="34.00" routeLength="206.69" waitingTime="10.00" waitingCount="1" stopTime="0.00" timeLoss="17.91" rerouteNo="0" devices="tripinfo_W_through.0" vType="toy_car" speedFactor="1.04" vaporized=""/>
    <tripinfo id="W_through.1" depart="23.00" departLane="E7_1" departPos="10.62" departSpeed="13.00" departDelay="0.34" arrival="56.00" arrivalLane="E7.61_1" arrivalPos="185.68" arrivalSpeed="12.59" duration="33.00" routeLength="305.29" waitingTime="0.00" waitingCount="0" stopTime="0.00" timeLoss="9.49" rerouteNo="0" devices="tripinfo_W_through.1" vType="toy_car" speedFactor="1.25" vaporized=""/>
    <tripinfo id="E_right.0" depart="48.00" departLane="-E7_1" departPos="185.58" departSpeed="0.00" departDelay="0.64" arrival="69.00" arrivalLane="-E9_1" arrivalPos="167.13" arrivalSpeed="12.75" duration="21.00" routeLength="176.23" waitingTime="0.00" waitingCount="0" stopTime="0.00" timeLoss="6.85" rerouteNo="0" devices="tripinfo_E_right.0" vType="toy_car" speedFactor="1.07" vaporized=""/>
    <tripinfo id="W_through.2" depart="53.00" departLane="E7_1" departPos="109.22" departSpeed="13.00" departDelay="0.77" arrival="70.00" arrivalLane="E7.61_1" arrivalPos="185.68" arrivalSpeed="12.63" duration="17.00" routeLength="206.69" waitingTime="0.00" waitingCount="0" stopTime="0.00" timeLoss="0.30" rerouteNo="0" devices="tripinfo_W_through.2" vType="toy_car" speedFactor="1.05" vaporized=""/>
    <tripinfo id="W_through.3" depart="53.00" departLane="E7_1" departPos="88.62" departSpeed="13.00" departDelay="0.69" arrival="72.00" arrivalLane="E7.61_1" arrivalPos="185.68" arrivalSpeed="12.69" duration="19.00" routeLength="227.29" waitingTime="0.00" waitingCount="0" stopTime="0.00" timeLoss="0.55" rerouteNo="0" devices="tripinfo_W_through.3" vType="toy_car" speedFactor="1.22" vaporized=""/>
    <tripinfo id="W_right.0" depart="58.00" departLane="E7_1" departPos="109.22" departSpeed="0.00" departDelay="0.98" arrival="80.00" arrivalLane="E8_1" arrivalPos="168.23" arrivalSpeed="12.35" duration="22.00" routeLength="177.40" waitingTime="0.00" waitingCount="0" stopTime="0.00" timeLoss="6.87" rerouteNo="0" devices="tripinfo_W_right.0" vType="toy_car" speedFactor="0.91" vaporized=""/>
    <tripinfo id="E_through.2" depart="73.00" departLane="-E7_1" departPos="185.58" departSpeed="13.00" departDelay="0.25" arrival="84.00" arrivalLane="-E7.68_1" arrivalPos="109.33" arrivalSpeed="12.67" duration="11.00" routeLength="130.54" waitingTime="0.00" waitingCount="0" stopTime="0.00" timeLoss="0.25" rerouteNo="0" devices="tripinfo_E_through.2" vType="toy_car" speedFactor="1.04" vaporized=""/>
    <tripinfo id="W_through.4" depart="70.00" departLane="E7_1" departPos="109.22" departSpeed="13.00" departDelay="0.24" arrival="87.00" arrivalLane="E7.61_1" arrivalPos="185.68" arrivalSpeed="12.68" duration="17.00" routeLength="206.69" waitingTime="0.00" waitingCount="0" stopTime="0.00" timeLoss="0.41" rerouteNo="0" devices="tripinfo_W_through.4" vType="toy_car" speedFactor="1.04" vaporized=""/>
    <tripinfo id="N_right.0" depart="89.00" departLane="E9_1" departPos="76.09" departSpeed="12.41" departDelay="0.61" arrival="122.00" arrivalLane="-E7.68_1" arrivalPos="109.33" arrivalSpeed="12.22" duration="33.00" routeLength="209.71" waitingTime="0.00" waitingCount="0" stopTime="0.00" timeLoss="14.56" rerouteNo="0" devices="tripinfo_N_right.0" vType="toy_car" speedFactor="0.89" vaporized=""/>
    <tripinfo id="S_through.4" depart="30.00" departLane="-E8_1" departPos="84.86" departSpeed="12.34" departDelay="0.05" arrival="123.00" arrivalLane="-E9_1" arrivalPos="167.13" arrivalSpeed="12.96" duration="93.00" routeLength="271.14" waitingTime="60.00" waitingCount="1" stopTime="0.00" timeLoss="71.38" rerouteNo="0" devices="tripinfo_S_through.4" vType="toy_car" speedFactor="1.10" vaporized=""/>
    <tripinfo id="N_through.1" depart="46.00" departLane="E9_1" departPos="167.03" departSpeed="0.00" departDelay="0.66" arrival="123.00" arrivalLane="E8_1" arrivalPos="168.23" arrivalSpeed="12.61" duration="77.00" routeLength="188.98" waitingTime="53.00" waitingCount="1" stopTime="0.00" timeLoss="61.52" rerouteNo="0" devices="tripinfo_N_through.1" vType="toy_car" speedFactor="0.92" vaporized=""/>
    <tripinfo id="S_through.5" depart="33.00" departLane="-E8_1" departPos="96.62" departSpeed="11.38" departDelay="0.24" arrival="125.00" arrivalLane="-E9_1" arrivalPos="167.13" arrivalSpeed="12.82" duration="92.00" routeLength="259.38" waitingTime="58.00" waitingCount="1" stopTime="0.00" timeLoss="71.22" rerouteNo="0" devices="tripinfo_S_through.5" vType="toy_car" speedFactor="1.00" vaporized=""/>
    <tripinfo id="S_through.6" depart="34.00" departLane="-E8_1" departPos="80.22" departSpeed="12.69" departDelay="0.27" arrival="126.00" arrivalLane="-E9_1" arrivalPos="167.13" arrivalSpeed="12.91" duration="92.00" routeLength="275.78" waitingTime="57.00" waitingCount="1" stopTime="0.00" timeLoss="70.78" rerouteNo="0" devices="tripinfo_S_through.6" vType="toy_car" speedFactor="0.97" vaporized=""/>
    <tripinfo id="S_through.7" depart="58.00" departLane="-E8_1" departPos="59.46" departSpeed="12.55" departDelay="0.53" arrival="129.00" arrivalLane="-E9_1" arrivalPos="167.13" arrivalSpeed="12.42" duration="71.00" routeLength="296.54" waitingTime="31.00" waitingCount="1" stopTime="0.00" timeLoss="46.75" rerouteNo="0" devices="tripinfo_S_through.7" vType="toy_car" speedFactor="0.90" vaporized=""/>
    <tripinfo id="S_through.8" depart="65.00" departLane="-E8_1" departPos="46.07" departSpeed="13.00" departDelay="0.14" arrival="131.00" arrivalLane="-E9_1" arrivalPos="167.13" arrivalSpeed="12.75" duration="66.00" routeLength="309.93" waitingTime="24.00" waitingCount="1" stopTime="0.00" timeLoss="41.34" rerouteNo="0" devices="tripinfo_S_through.8" vType="toy_car" speedFactor="0.96" vaporized=""/>
    <tripinfo id="S_through.9" depart="73.00" departLane="-E8_1" departPos="38.49" departSpeed="13.00" departDelay="0.61" arrival="132.00" arrivalLane="-E9_1" arrivalPos="167.13" arrivalSpeed="12.76" duration="59.00" routeLength="317.51" waitingTime="17.00" waitingCount="1" stopTime="0.00" timeLoss="34.57" rerouteNo="0" devices="tripinfo_S_through.9" vType="toy_car" speedFactor="1.08" vaporized=""/>
    <tripinfo id="S_through.10" depart="86.00" departLane="-E8_1" departPos="30.92" departSpeed="13.00" departDelay="0.75" arrival="134.00" arrivalLane="-E9_1" arrivalPos="167.13" arrivalSpeed="12.83" duration="48.00" routeLength="325.08" waitingTime="5.00" waitingCount="1" stopTime="0.00" timeLoss="22.89" rerouteNo="0" devices="tripinfo_S_through.10" vType="toy_car" speedFactor="1.05" vaporized=""/>
    <tripinfo id="S_through.11" depart="105.00" departLane="-E8_1" departPos="23.62" departSpeed="13.00" departDelay="0.85" arrival="137.00" arrivalLane="-E9_1" arrivalPos="167.13" arrivalSpeed="12.59" duration="32.00" routeLength="332.38" waitingTime="0.00" waitingCount="0" stopTime="0.00" timeLoss="5.49" rerouteNo="0" devices="tripinfo_S_through.11" vType="toy_car" speedFactor="1.23" vaporized=""/>
    <tripinfo id="S_through.12" depart="112.00" departLane="-E8_1" departPos="24.69" departSpeed="13.00" departDelay="0.33" arrival="139.00" arrivalLane="-E9_1" arrivalPos="167.13" arrivalSpeed="12.83" duration="27.00" routeLength="331.31" waitingTime="0.00" waitingCount="0" stopTime="0.00" timeLoss="1.39" rerouteNo="0" devices="tripinfo_S_through.12" vType="toy_car" speedFactor="1.05" vaporized=""/>
    <tripinfo id="E_through.3" depart="123.00" departLane="-E7_1" departPos="94.58" departSpeed="12.93" departDelay="0.36" arrival="142.00" arrivalLane="-E7.68_1" arrivalPos="109.33" arrivalSpeed="12.55" duration="19.00" routeLength="221.54" waitingTime="0.00" waitingCount="0" stopTime="0.00" timeLoss="1.81" rerouteNo="0" devices="tripinfo_E_through.3" vType="toy_car" speedFactor="1.00" vaporized=""/>
    <tripinfo id="N_left.2" depart="69.00" departLane="E9_2" departPos="167.03" departSpeed="0.00" departDelay="0.97" arrival="149.00" arrivalLane="E7.61_2" arrivalPos="185.68" arrivalSpeed="12.51" duration="80.00" routeLength="204.87" waitingTime="50.00" waitingCount="2" stopTime="0.00" timeLoss="62.67" rerouteNo="0" devices="tripinfo_N_left.2" vType="toy_car" speedFactor="0.93" vaporized=""/>
    <tripinfo id="W_through.5" depart="121.00" departLane="E7_1" departPos="66.16" departSpeed="8.68" departDelay="0.30" arrival="154.00" arrivalLane="E7.61_1" arrivalPos="185.68" arrivalSpeed="12.68" duration="33.00" routeLength="249.75" waitingTime="3.00" waitingCount="1" stopTime="0.00" timeLoss="13.40" rerouteNo="0" devices="tripinfo_W_through.5" vType="toy_car" speedFactor="0.93" vaporized=""/>
    <personinfo id="ped_E_to_W.2" depart="20.00" type="pedType" speedFactor="1.10" duration="192.00" waitingTime="0.00" timeLoss="19.99" traveltime="192.00">
        <walk depart="20.00" departPos="0.00" arrival="212.00" arrivalPos="54.66" duration="192.00" routeLength="262.01" timeLoss="19.99" maxSpeed="1.52" waitingTime="0.00"/>
    </personinfo>
    <personinfo id="ped_W_to_E.2" depart="20.00" type="pedType" speedFactor="1.04" duration="195.00" waitingTime="19.00" timeLoss="40.12" traveltime="195.00">
        <walk depart="20.00" departPos="0.00" arrival="215.00" arrivalPos="92.84" duration="195.00" routeLength="223.50" timeLoss="40.12" maxSpeed="1.44" waitingTime="19.00"/>
    </personinfo>
    <personinfo id="ped_W_to_E.1" depart="10.00" type="pedType" speedFactor="1.04" duration="205.00" waitingTime="31.00" timeLoss="50.26" traveltime="205.00">
        <walk depart="10.00" departPos="0.00" arrival="215.00" arrivalPos="92.84" duration="205.00" routeLength="223.50" timeLoss="50.26" maxSpeed="1.44" waitingTime="31.00"/>
    </personinfo>
    <personinfo id="ped_W_to_E.4" depart="39.00" type="pedType" speedFactor="1.16" duration="177.00" waitingTime="10.00" timeLoss="38.86" traveltime="177.00">
        <walk depart="39.00" departPos="0.00" arrival="216.00" arrivalPos="92.84" duration="177.00" routeLength="223.50" timeLoss="38.86" maxSpeed="1.62" waitingTime="10.00"/>
    </personinfo>
    <personinfo id="ped_W_to_E.3" depart="29.00" type="pedType" speedFactor="1.02" duration="189.00" waitingTime="10.00" timeLoss="31.84" traveltime="189.00">
        <walk depart="29.00" departPos="0.00" arrival="218.00" arrivalPos="92.84" duration="189.00" routeLength="223.50" timeLoss="31.84" maxSpeed="1.42" waitingTime="10.00"/>
    </personinfo>
    <tripinfo id="N_right.1" depart="147.00" departLane="E9_1" departPos="167.03" departSpeed="0.00" departDelay="0.58" arrival="218.00" arrivalLane="-E7.68_1" arrivalPos="109.33" arrivalSpeed="12.97" duration="71.00" routeLength="118.77" waitingTime="52.00" waitingCount="1" stopTime="0.00" timeLoss="60.55" rerouteNo="0" devices="tripinfo_N_right.1" vType="toy_car" speedFactor="0.95" vaporized=""/>
    <personinfo id="ped_W_to_E.5" depart="48.00" type="pedType" speedFactor="1.05" duration="171.00" waitingTime="0.00" timeLoss="17.66" traveltime="171.00">
        <walk depart="48.00" departPos="0.00" arrival="219.00" arrivalPos="92.84" duration="171.00" routeLength="223.50" timeLoss="17.66" maxSpeed="1.46" waitingTime="0.00"/>
    </personinfo>
    <personinfo id="ped_W_to_E.0" depart="0.00" type="pedType" speedFactor="1.00" duration="222.00" waitingTime="38.00" timeLoss="60.79" traveltime="222.00">
        <walk depart="0.00" departPos="0.00" arrival="222.00" arrivalPos="92.84" duration="222.00" routeLength="223.50" timeLoss="60.79" maxSpeed="1.39" waitingTime="38.00"/>
    </personinfo>
    <personinfo id="ped_W_to_E.7" depart="67.00" type="pedType" speedFactor="1.19" duration="155.00" waitingTime="0.00" timeLoss="19.21" traveltime="155.00">
        <walk depart="67.00" departPos="0.00" arrival="222.00" arrivalPos="92.84" duration="155.00" routeLength="223.50" timeLoss="19.21" maxSpeed="1.65" waitingTime="0.00"/>
    </personinfo>
    <tripinfo id="S_through.13" depart="127.00" departLane="-E8_1" departPos="84.86" departSpeed="12.34" departDelay="1.29" arrival="223.00" arrivalLane="-E9_1" arrivalPos="167.13" arrivalSpeed="12.81" duration="96.00" routeLength="271.14" waitingTime="63.00" waitingCount="1" stopTime="0.00" timeLoss="74.35" rerouteNo="0" devices="tripinfo_S_through.13" vType="toy_car" speedFactor="1.07" vaporized=""/>
    <tripinfo id="S_through.14" depart="145.00" departLane="-E8_1" departPos="68.63" departSpeed="13.00" departDelay="0.44" arrival="225.00" arrivalLane="-E9_1" arrivalPos="167.13" arrivalSpeed="12.55" duration="80.00" routeLength="287.37" waitingTime="41.00" waitingCount="1" stopTime="0.00" timeLoss="57.01" rerouteNo="0" devices="tripinfo_S_through.14" vType="toy_car" speedFactor="1.00" vaporized=""/>
    <tripinfo id="N_through.2" depart="151.00" departLane="E9_1" departPos="68.43" departSpeed="13.00" departDelay="0.05" arrival="226.00" arrivalLane="E8_1" arrivalPos="168.23" arrivalSpeed="12.68" duration="75.00" routeLength="287.58" waitingTime="35.00" waitingCount="1" stopTime="0.00" timeLoss="52.14" rerouteNo="0" devices="tripinfo_N_through.2" vType="toy_car" speedFactor="0.96" vaporized=""/>
    <tripinfo id="N_right.2" depart="169.00" departLane="E9_1" departPos="53.18" departSpeed="13.00" departDelay="0.82" arrival="226.00" arrivalLane="-E7.68_1" arrivalPos="109.33" arrivalSpeed="12.96" duration="57.00" routeLength="232.62" waitingTime="19.00" waitingCount="1" stopTime="0.00" timeLoss="38.46" rerouteNo="0" devices="tripinfo_N_right.2" vType="toy_car" speedFactor="0.96" vaporized=""/>
    <tripinfo id="S_through.15" depart="182.00" departLane="-E8_1" departPos="61.13" departSpeed="13.00" departDelay="0.65" arrival="227.00" arrivalLane="-E9_1" arrivalPos="167.13" arrivalSpeed="12.77" duration="45.00" routeLength="294.87" waitingTime="4.00" waitingCount="1" stopTime="0.00" timeLoss="21.56" rerouteNo="0" devices="tripinfo_S_through.15" vType="toy_car" speedFactor="1.03" vaporized=""/>
    <tripinfo id="N_through.3" depart="159.00" departLane="E9_1" departPos="68.50" departSpeed="12.40" departDelay="0.96" arrival="228.00" arrivalLane="E8_1" arrivalPos="168.23" arrivalSpeed="11.92" duration="69.00" routeLength="287.51" waitingTime="28.00" waitingCount="1" stopTime="0.00" timeLoss="45.25" rerouteNo="0" devices="tripinfo_N_through.3" vType="toy_car" speedFactor="0.89" vaporized=""/>
    <tripinfo id="N_through.4" depart="173.00" departLane="E9_1" departPos="44.49" departSpeed="13.00" departDelay="0.78" arrival="234.00" arrivalLane="E8_1" arrivalPos="168.23" arrivalSpeed="12.67" duration="61.00" routeLength="311.52" waitingTime="15.00" waitingCount="1" stopTime="0.00" timeLoss="36.31" rerouteNo="0" devices="tripinfo_N_through.4" vType="toy_car" speedFactor="1.12" vaporized=""/>
    <tripinfo id="N_left.3" depart="139.00" departLane="E9_2" departPos="167.03" departSpeed="0.00" departDelay="0.63" arrival="236.00" arrivalLane="E7.61_2" arrivalPos="185.68" arrivalSpeed="12.81" duration="97.00" routeLength="204.87" waitingTime="66.00" waitingCount="2" stopTime="0.00" timeLoss="79.72" rerouteNo="0" devices="tripinfo_N_left.3" vType="toy_car" speedFactor="0.93" vaporized=""/>
    <tripinfo id="N_through.5" depart="175.00" departLane="E9_1" departPos="33.23" departSpeed="13.00" departDelay="0.55" arrival="236.00" arrivalLane="E8_1" arrivalPos="168.23" arrivalSpeed="12.89" duration="61.00" routeLength="322.78" waitingTime="14.00" waitingCount="1" stopTime="0.00" timeLoss="35.50" rerouteNo="0" devices="tripinfo_N_through.5" vType="toy_car" speedFactor="1.14" vaporized=""/>
    <tripinfo id="N_through.6" depart="181.00" departLane="E9_1" departPos="32.95" departSpeed="12.58" departDelay="0.87" arrival="238.00" arrivalLane="E8_1" arrivalPos="168.23" arrivalSpeed="12.19" duration="57.00" routeLength="323.06" waitingTime="11.00" waitingCount="1" stopTime="0.00" timeLoss="30.89" rerouteNo="0" devices="tripinfo_N_through.6" vType="toy_car" speedFactor="0.91" vaporized=""/>
    <tripinfo id="N_left.4" depart="142.00" departLane="E9_2" departPos="68.43" departSpeed="13.00" departDelay="0.73" arrival="239.00" arrivalLane="E7.61_2" arrivalPos="185.68" arrivalSpeed="12.52" duration="97.00" routeLength="303.47" waitingTime="50.00" waitingCount="2" stopTime="0.00" timeLoss="72.60" rerouteNo="0" devices="tripinfo_N_left.4" vType="toy_car" speedFactor="1.04" vaporized=""/>
    <tripinfo id="S_left.1" depart="172.00" departLane="-E8_2" departPos="168.13" departSpeed="0.00" departDelay="0.24" arrival="241.00" arrivalLane="-E7.68_2" arrivalPos="109.33" arrivalSpeed="12.55" duration="69.00" routeLength="128.76" waitingTime="45.00" waitingCount="2" stopTime="0.00" timeLoss="58.68" rerouteNo="0" devices="tripinfo_S_left.1" vType="toy_car" speedFactor="1.09" vaporized=""/>
    <personinfo id="ped_E_to_W.1" depart="10.00" type="pedType" speedFactor="0.98" duration="233.00" waitingTime="0.00" timeLoss="39.82" traveltime="233.00">
        <walk depart="10.00" departPos="0.00" arrival="243.00" arrivalPos="54.66" duration="233.00" routeLength="262.01" timeLoss="39.82" maxSpeed="1.36" waitingTime="0.00"/>
    </personinfo>
    <tripinfo id="E_through.4" depart="196.00" departLane="-E7_1" departPos="185.58" departSpeed="0.00" departDelay="32.80" arrival="249.00" arrivalLane="-E7.68_1" arrivalPos="109.33" arrivalSpeed="12.76" duration="53.00" routeLength="130.54" waitingTime="34.00" waitingCount="1" stopTime="0.00" timeLoss="42.30" rerouteNo="0" devices="tripinfo_E_through.4" vType="toy_car" speedFactor="1.00" vaporized=""/>
    <tripinfo id="E_through.5" depart="196.00" departLane="-E7_1" departPos="99.95" departSpeed="12.00" departDelay="23.99" arrival="252.00" arrivalLane="-E7.68_1" arrivalPos="109.33" arrivalSpeed="11.75" duration="56.00" routeLength="216.17" waitingTime="22.00" waitingCount="1" stopTime="0.00" timeLoss="37.21" rerouteNo="0" devices="tripinfo_E_through.5" vType="toy_car" speedFactor="0.86" vaporized=""/>
    <personinfo id="ped_E_to_W.0" depart="0.00" type="pedType" speedFactor="0.83" duration="253.00" waitingTime="0.00" timeLoss="24.75" traveltime="253.00">
        <walk depart="0.00" departPos="0.00" arrival="253.00" arrivalPos="54.66" duration="253.00" routeLength="262.01" timeLoss="24.75" maxSpeed="1.15" waitingTime="0.00"/>
    </personinfo>
    <tripinfo id="E_through.6" depart="196.00" departLane="-E7_1" departPos="67.38" departSpeed="13.00" departDelay="17.40" arrival="254.00" arrivalLane="-E7.68_1" arrivalPos="109.33" arrivalSpeed="12.95" duration="58.00" routeLength="248.74" waitingTime="21.00" waitingCount="1" stopTime="0.00" timeLoss="37.98" rerouteNo="0" devices="tripinfo_E_through.6" vType="toy_car" speedFactor="0.98" vaporized=""/>
    <tripinfo id="W_through.6" depart="196.00" departLane="E7_1" departPos="109.22" departSpeed="0.00" departDelay="55.04" arrival="255.00" arrivalLane="E7.61_1" arrivalPos="185.68" arrivalSpeed="12.55" duration="59.00" routeLength="206.69" waitingTime="34.00" waitingCount="1" stopTime="0.00" timeLoss="42.29" rerouteNo="0" devices="tripinfo_W_through.6" vType="toy_car" speedFactor="1.01" vaporized=""/>
    <tripinfo id="W_right.1" depart="196.00" departLane="E7_1" departPos="22.49" departSpeed="12.09" departDelay="54.99" arrival="255.00" arrivalLane="E8_1" arrivalPos="168.23" arrivalSpeed="11.70" duration="59.00" routeLength="264.13" waitingTime="22.00" waitingCount="1" stopTime="0.00" timeLoss="36.27" rerouteNo="0" devices="tripinfo_W_right.1" vType="toy_car" speedFactor="0.87" vaporized=""/>
    <tripinfo id="E_through.7" depart="196.00" departLane="-E7_1" departPos="46.78" departSpeed="13.00" departDelay="6.84" arrival="255.00" arrivalLane="-E7.68_1" arrivalPos="109.33" arrivalSpeed="12.80" duration="59.00" routeLength="269.34" waitingTime="20.00" waitingCount="1" stopTime="0.00" timeLoss="38.25" rerouteNo="0" devices="tripinfo_E_through.7" vType="toy_car" speedFactor="1.00" vaporized=""/>
    <personinfo id="ped_W_to_E.6" depart="58.00" type="pedType" speedFactor="0.90" duration="199.00" waitingTime="0.00" timeLoss="19.54" traveltime="199.00">
        <walk depart="58.00" departPos="0.00" arrival="257.00" arrivalPos="92.84" duration="199.00" routeLength="223.50" timeLoss="19.54" maxSpeed="1.25" waitingTime="0.00"/>
    </personinfo>
    <tripinfo id="E_through.8" depart="196.00" departLane="-E7_1" departPos="26.18" departSpeed="13.00" departDelay="6.15" arrival="258.00" arrivalLane="-E7.68_1" arrivalPos="109.33" arrivalSpeed="12.76" duration="62.00" routeLength="289.94" waitingTime="20.00" waitingCount="1" stopTime="0.00" timeLoss="38.73" rerouteNo="0" devices="tripinfo_E_through.8" vType="toy_car" speedFactor="0.97" vaporized=""/>
    <personinfo id="ped_W_to_E.9" depart="86.00" type="pedType" speedFactor="1.04" duration="173.00" waitingTime="0.00" timeLoss="19.01" traveltime="173.00">
        <walk depart="86.00" departPos="0.00" arrival="259.00" arrivalPos="92.84" duration="173.00" routeLength="223.50" timeLoss="19.01" maxSpeed="1.45" waitingTime="0.00"/>
    </personinfo>
    <tripinfo id="W_through.7" depart="198.00" departLane="E7_1" departPos="1.69" departSpeed="13.00" departDelay="46.72" arrival="259.00" arrivalLane="E7.61_1" arrivalPos="185.68" arrivalSpeed="13.00" duration="61.00" routeLength="314.22" waitingTime="19.00" waitingCount="1" stopTime="0.00" timeLoss="36.69" rerouteNo="0" devices="tripinfo_W_through.7" vType="toy_car" speedFactor="1.12" vaporized=""/>
    <tripinfo id="E_through.9" depart="196.00" departLane="-E7_1" departPos="5.58" departSpeed="13.00" departDelay="5.36" arrival="259.00" arrivalLane="-E7.68_1" arrivalPos="109.33" arrivalSpeed="12.55" duration="63.00" routeLength="310.54" waitingTime="19.00" waitingCount="1" stopTime="0.00" timeLoss="38.96" rerouteNo="0" devices="tripinfo_E_through.9" vType="toy_car" speedFactor="0.94" vaporized=""/>
    <tripinfo id="E_through.10" depart="198.00" departLane="-E7_1" departPos="0.31" departSpeed="13.00" departDelay="6.90" arrival="261.00" arrivalLane="-E7.68_1" arrivalPos="109.33" arrivalSpeed="12.93" duration="63.00" routeLength="315.81" waitingTime="18.00" waitingCount="1" stopTime="0.00" timeLoss="38.40" rerouteNo="0" devices="tripinfo_E_through.10" vType="toy_car" speedFactor="1.03" vaporized=""/>
    <tripinfo id="W_through.8" depart="235.00" departLane="E7_1" departPos="0.72" departSpeed="12.92" departDelay="67.14" arrival="262.00" arrivalLane="E7.61_1" arrivalPos="185.68" arrivalSpeed="12.45" duration="27.00" routeLength="315.19" waitingTime="0.00" waitingCount="0" stopTime="0.00" timeLoss="2.44" rerouteNo="0" devices="tripinfo_W_through.8" vType="toy_car" speedFactor="0.93" vaporized=""/>
    <tripinfo id="E_through.11" depart="200.00" departLane="-E7_1" departPos="0.08" departSpeed="13.00" departDelay="1.30" arrival="263.00" arrivalLane="-E7.68_1" arrivalPos="109.33" arrivalSpeed="12.74" duration="63.00" routeLength="316.04" waitingTime="17.00" waitingCount="1" stopTime="0.00" timeLoss="38.24" rerouteNo="0" devices="tripinfo_E_through.11" vType="toy_car" speedFactor="0.97" vaporized=""/>
    <tripinfo id="W_through.9" depart="240.00" departLane="E7_1" departPos="7.60" departSpeed="13.00" departDelay="71.97" arrival="265.00" arrivalLane="E7.61_1" arrivalPos="185.68" arrivalSpeed="12.66" duration="25.00" routeLength="308.31" waitingTime="0.00" waitingCount="0" stopTime="0.00" timeLoss="0.84" rerouteNo="0" devices="tripinfo_W_through.9" vType="toy_car" speedFactor="0.96" vaporized=""/>
    <tripinfo id="W_through.10" depart="242.00" departLane="E7_1" departPos="4.26" departSpeed="13.00" departDelay="66.13" arrival="267.00" arrivalLane="E7.61_1" arrivalPos="185.68" arrivalSpeed="12.92" duration="25.00" routeLength="311.65" waitingTime="0.00" waitingCount="0" stopTime="0.00" timeLoss="0.62" rerouteNo="0" devices="tripinfo_W_through.10" vType="toy_car" speedFactor="0.99" vaporized=""/>
    <personinfo id="ped_N_to_S.2" depart="20.00" type="pedType" speedFactor="1.16" duration="249.00" waitingTime="59.00" timeLoss="80.07" traveltime="249.00">
        <walk depart="20.00" departPos="0.00" arrival="269.00" arrivalPos="84.11" duration="249.00" routeLength="272.59" timeLoss="80.07" maxSpeed="1.61" waitingTime="59.00"/>
    </personinfo>
    <tripinfo id="W_through.11" depart="243.00" departLane="E7_1" departPos="1.72" departSpeed="12.48" departDelay="48.94" arrival="269.00" arrivalLane="E7.61_1" arrivalPos="185.68" arrivalSpeed="12.35" duration="26.00" routeLength="314.19" waitingTime="0.00" waitingCount="0" stopTime="0.00" timeLoss="0.67" rerouteNo="0" devices="tripinfo_W_through.11" vType="toy_car" speedFactor="0.90" vaporized=""/>