<?xml version="1.0" encoding="UTF-8"?>

<!-- generated on 2026-04-03T14:47:22.353202-05:00 by Eclipse SUMO GUI 1.26.0
<sumoConfiguration xmlns:xsi="http://www.w3.org/2001/XMLSchema-instance" xsi:noNamespaceSchemaLocation="http://sumo.dlr.de/xsd/sumoConfiguration.xsd">

    <input>
        <net-file value="Dundas_Church.net.xml"/>
        <route-files value="simTraffic/dundas_church_pm_peak_insert.rou.xml,simTraffic/dundas_church_pedestrian.rou.xml"/>
    </input>

    <output>
        <summary-output value="pm_peak_fixed_summary.xml"/>
        <tripinfo-output value="pm_peak_fixed_tripinfo.xml"/>
        <tripinfo-output.write-unfinished value="true"/>
    </output>

    <time>
        <begin value="0"/>
        <end value="3600"/>
    </time>

    <processing>
        <max-depart-delay value="-1"/>
    </processing>

    <report>
        <duration-log.disable value="true"/>
    </report>

    <traci_server>
        <remote-port value="52820"/>
    </traci_server>

    <random_number>
        <seed value="42"/>
    </random_number>

</sumoConfiguration>
-->

<tripinfos xmlns:xsi="http://www.w3.org/2001/XMLSchema-instance" xsi:noNamespaceSchemaLocation="http://sumo.dlr.de/xsd/tripinfo_file.xsd">
    <tripinfo id="N_through.0" depart="3.00" departLane="E9_1" departPos="167.03" departSpeed="13.00" departDelay="0.21" arrival="18.00" arrivalLane="E8_1" arrivalPos="168.23" arrivalSpeed="12.50" duration="15.00" routeLength="188.98" waitingTime="0.00" waitingCount="0" stopTime="0.00" timeLoss="0.29" rerouteNo="0" devices="tripinfo_N_through.0" vType="toy_car" speedFactor="0.95" vaporized=""/>
    <tripinfo id="S_through.0" depart="4.00" departLane="-E8_1" departPos="168.13" departSpeed="12.75" departDelay="0.62" arrival="19.00" arrivalLane="-E9_1" arrivalPos="167.13" arrivalSpeed="12.50" duration="15.00" routeLength="187.87" waitingTime="0.00" waitingCount="0" stopTime="0.00" timeLoss="0.20" rerouteNo="0" devices="tripinfo_S_through.0" vType="toy_car" speedFactor="0.92" vaporized=""/>
    <tripinfo id="S_through.1" depart="5.00" departLane="-E8_1" departPos="154.98" departSpeed="13.00" departDelay="0.06" arrival="21.00" arrivalLane="-E9_1" arrivalPos="167.13" arrivalSpeed="12.85" duration="16.00" routeLength="201.02" waitingTime="0.00" waitingCount="0" stopTime="0.00" timeLoss="0.40" rerouteNo="0" devices="tripinfo_S_through.1" vType="toy_car" speedFactor="1.02" vaporized=""/>
    <tripinfo id="N_left.0" depart="4.00" departLane="E9_2" departPos="167.03" departSpeed="0.00" departDelay="0.50" arrival="31.00" arrivalLane="E7.61_2" arrivalPos="185.68" arrivalSpeed="12.69" duration="27.00" routeLength="204.87" waitingTime="0.00" waitingCount="0" stopTime="0.00" timeLoss="10.42" rerouteNo="0" devices="tripinfo_N_left.0" vType="toy_car" speedFactor="1.13" vaporized=""/>
    <tripinfo id="S_through.2" depart="17.00" departLane="-E8_1" departPos="168.13" departSpeed="13.00" departDelay="0.16" arrival="32.00" arrivalLane="-E9_1" arrivalPos="167.13" arrivalSpeed="12.95" duration="15.00" routeLength="187.87" waitingTime="0.00" waitingCount="0" stopTime="0.00" timeLoss="0.29" rerouteNo="0" devices="tripinfo_S_through.2" vType="toy_car" speedFactor="1.01" vaporized=""/>
    <tripinfo id="S_left.0" depart="16.00" departLane="-E8_2" departPos="168.13" departSpeed="0.00" departDelay="0.28" arrival="37.00" arrivalLane="-E7.68_2" arrivalPos="109.33" arrivalSpeed="12.61" duration="21.00" routeLength="128.76" waitingTime="0.00" waitingCount="0" stopTime="0.00" timeLoss="10.35" rerouteNo="0" devices="tripinfo_S_left.0" vType="toy_car" speedFactor="1.05" vaporized=""/>
    <tripinfo id="E_through.0" depart="8.00" departLane="-E7_1" departPos="137.06" departSpeed="9.26" departDelay="0.71" arrival="51.00" arrivalLane="-E7.68_1" arrivalPos="109.33" arrivalSpeed="9.28" duration="43.00" routeLength="179.06" waitingTime="15.00" waitingCount="1" stopTime="0.00" timeLoss="23.29" rerouteNo="0" devices="tripinfo_E_through.0" vType="toy_car" speedFactor="0.69" vaporized=""/>
    <tripinfo id="E_through.1" depart="15.00" departLane="-E7_1" departPos="86.08" departSpeed="13.00" departDelay="0.53" arrival="53.00" arrivalLane="-E7.68_1" arrivalPos="109.33" arrivalSpeed="10.89" duration="38.00" routeLength="230.04" waitingTime="2.00" waitingCount="1" stopTime="0.00" timeLoss="19.87" rerouteNo="0" devices="tripinfo_E_through.1" vType="toy_car" speedFactor="1.04" vaporized=""/>
    <tripinfo id="W_through.0" depart="14.00" departLane="E7_1" departPos="109.22" departSpeed="0.00" departDelay="0.65" arrival="55.00" arrivalLane="E7.61_1" arrivalPos="185.68" arrivalSpeed="12.51" duration="41.00" routeLength="206.69" waitingTime="16.00" waitingCount="1" stopTime="0.00" timeLoss="24.18" rerouteNo="0" devices="tripinfo_W_through.0" vType="toy_car" speedFactor="1.09" vaporized=""/>
    <tripinfo id="E_through.2" depart="20.00" departLane="-E7_1" departPos="77.49" departSpeed="13.00" departDelay="0.66" arrival="55.00" arrivalLane="-E7.68_1" arrivalPos="109.33" arrivalSpeed="11.08" duration="35.00" routeLength="238.63" waitingTime="0.00" waitingCount="0" stopTime="0.00" timeLoss="16.21" rerouteNo="0" devices="tripinfo_E_through.2" vType="toy_car" speedFactor="1.25" vaporized=""/>
    <tripinfo id="W_through.1" depart="28.00" departLane="E7_1" departPos="10.62" departSpeed="13.00" departDelay="0.67" arrival="57.00" arrivalLane="E7.61_1" arrivalPos="185.68" arrivalSpeed="12.77" duration="29.00" routeLength="305.29" waitingTime="0.00" waitingCount="0" stopTime="0.00" timeLoss="4.84" rerouteNo="0" devices="tripinfo_W_through.1" vType="toy_car" speedFactor="1.17" vaporized=""/>
    <tripinfo id="W_through.2" depart="30.00" departLane="E7_1" departPos="0.43" departSpeed="13.00" departDelay="2.45" arrival="59.00" arrivalLane="E7.61_1" arrivalPos="185.68" arrivalSpeed="12.97" duration="29.00" routeLength="315.48" waitingTime="0.00" waitingCount="0" stopTime="0.00" timeLoss="4.04" rerouteNo="0" devices="tripinfo_W_through.2" vType="toy_car" speedFactor="1.13" vaporized=""/>
    <tripinfo id="W_through.3" depart="36.00" departLane="E7_1" departPos="2.15" departSpeed="13.00" departDelay="6.11" arrival="62.00" arrivalLane="E7.61_1" arrivalPos="185.68" arrivalSpeed="12.70" duration="26.00" routeLength="313.76" waitingTime="0.00" waitingCount="0" stopTime="0.00" timeLoss="1.17" rerouteNo="0" devices="tripinfo_W_through.3" vType="toy_car" speedFactor="1.10" vaporized=""/>
    <tripinfo id="W_through.4" depart="39.00" departLane="E7_1" departPos="4.84" departSpeed="13.00" departDelay="7.79" arrival="64.00" arrivalLane="E7.61_1" arrivalPos="185.68" arrivalSpeed="12.58" duration="25.00" routeLength="311.07" waitingTime="0.00" waitingCount="0" stopTime="0.00" timeLoss="0.66" rerouteNo="0" devices="tripinfo_W_through.4" vType="toy_car" speedFactor="1.00" vaporized=""/>
    <tripinfo id="W_through.5" depart="41.00" departLane="E7_1" departPos="5.76" departSpeed="13.00" departDelay="9.33" arrival="66.00" arrivalLane="E7.61_1" arrivalPos="185.68" arrivalSpeed="12.52" duration="25.00" routeLength="310.15" waitingTime="0.00" waitingCount="0" stopTime="0.00" timeLoss="0.69" rerouteNo="0" devices="tripinfo_W_through.5" vType="toy_car" speedFactor="0.97" vaporized=""/>
    <tripinfo id="E_right.0" depart="44.00" departLane="-E7_1" departPos="185.58" departSpeed="0.00" departDelay="0.02" arrival="66.00" arrivalLane="-E9_1" arrivalPos="167.13" arrivalSpeed="12.27" duration="22.00" routeLength="176.23" waitingTime="0.00" waitingCount="0" stopTime="0.00" timeLoss="6.50" rerouteNo="0" devices="tripinfo_E_right.0" vType="toy_car" speedFactor="0.90" vaporized=""/>
    <tripinfo id="W_through.6" depart="43.00" departLane="E7_1" departPos="6.32" departSpeed="13.00" departDelay="0.20" arrival="68.00" arrivalLane="E7.61_1" arrivalPos="185.68" arrivalSpeed="12.55" duration="25.00" routeLength="309.59" waitingTime="0.00" waitingCount="0" stopTime="0.00" timeLoss="0.65" rerouteNo="0" devices="tripinfo_W_through.6" vType="toy_car" speedFactor="1.05" vaporized=""/>
    <tripinfo id="W_through.7" depart="45.00" departLane="E7_1" departPos="4.66" departSpeed="13.00" departDelay="2.14" arrival="70.00" arrivalLane="E7.61_1" arrivalPos="185.68" arrivalSpeed="12.55" duration="25.00" routeLength="311.25" waitingTime="0.00" waitingCount="0" stopTime="0.00" timeLoss="0.53" rerouteNo="0" devices="tripinfo_W_through.7" vType="toy_car" speedFactor="1.22" vaporized=""/>
    <tripinfo id="E_through.3" depart="60.00" departLane="-E7_1" departPos="185.58" departSpeed="13.00" departDelay="0.07" arrival="71.00" arrivalLane="-E7.68_1" arrivalPos="109.33" arrivalSpeed="12.55" duration="11.00" routeLength="130.54" waitingTime="0.00" waitingCount="0" stopTime="0.00" timeLoss="0.24" rerouteNo="0" devices="tripinfo_E_through.3" vType="toy_car" speedFactor="1.04" vaporized=""/>
    <tripinfo id="W_through.8" depart="56.00" departLane="E7_1" departPos="109.22" departSpeed="12.69" departDelay="0.96" arrival="73.00" arrivalLane="E7.61_1" arrivalPos="185.68" arrivalSpeed="12.44" duration="17.00" routeLength="206.69" waitingTime="0.00" waitingCount="0" stopTime="0.00" timeLoss="0.35" rerouteNo="0" devices="tripinfo_W_through.8" vType="toy_car" speedFactor="0.91" vaporized=""/>
    <tripinfo id="W_right.0" depart="64.00" departLane="E7_1" departPos="109.22" departSpeed="0.00" departDelay="0.78" arrival="86.00" arrivalLane="E8_1" arrivalPos="168.23" arrivalSpeed="12.67" duration="22.00" routeLength="177.40" waitingTime="0.00" waitingCount="0" stopTime="0.00" timeLoss="7.29" rerouteNo="0" devices="tripinfo_W_right.0" vType="toy_car" speedFactor="1.08" vaporized=""/>
    <tripinfo id="W_through.9" depart="64.00" departLane="E7_1" departPos="10.62" departSpeed="13.00" departDelay="0.41" arrival="89.00" arrivalLane="E7.61_1" arrivalPos="185.68" arrivalSpeed="12.95" duration="25.00" routeLength="305.29" waitingTime="0.00" waitingCount="0" stopTime="0.00" timeLoss="1.33" rerouteNo="0" devices="tripinfo_W_through.9" vType="toy_car" speedFactor="1.04" vaporized=""/>
    <tripinfo id="E_right.1" depart="86.00" departLane="-E7_1" departPos="185.58" departSpeed="0.00" departDelay="0.70" arrival="108.00" arrivalLane="-E9_1" arrivalPos="167.13" arrivalSpeed="12.82" duration="22.00" routeLength="176.23" waitingTime="0.00" waitingCount="0" stopTime="0.00" timeLoss="7.33" rerouteNo="0" devices="tripinfo_E_right.1" vType="toy_car" speedFactor="0.93" vaporized=""/>
    <tripinfo id="W_through.10" depart="91.00" departLane="E7_1" departPos="109.22" departSpeed="13.00" departDelay="0.32" arrival="108.00" arrivalLane="E7.61_1" arrivalPos="185.68" arrivalSpeed="12.82" duration="17.00" routeLength="206.69" waitingTime="0.00" waitingCount="0" stopTime="0.00" timeLoss="0.32" rerouteNo="0" devices="tripinfo_W_through.10" vType="toy_car" speedFactor="1.00" vaporized=""/>
    <tripinfo id="N_right.0" depart="77.00" departLane="E9_1" departPos="75.19" departSpeed="12.41" departDelay="0.15" arrival="121.00" arrivalLane="-E7.68_1" arrivalPos="109.33" arrivalSpeed="12.01" duration="44.00" routeLength="210.61" waitingTime="10.00" waitingCount="1" stopTime="0.00" timeLoss="25.93" rerouteNo="0" devices="tripinfo_N_right.0" vType="toy_car" speedFactor="0.89" vaporized=""/>
    <tripinfo id="N_through.1" depart="38.00" departLane="E9_1" departPos="90.09" departSpeed="11.84" departDelay="0.24" arrival="123.00" arrivalLane="E8_1" arrivalPos="168.23" arrivalSpeed="12.61" duration="85.00" routeLength="265.92" waitingTime="53.00" waitingCount="1" stopTime="0.00" timeLoss="63.45" rerouteNo="0" devices="tripinfo_N_through.1" vType="toy_car" speedFactor="0.92" vaporized=""/>
    <tripinfo id="S_left.1" depart="43.00" departLane="-E8_2" departPos="168.13" departSpeed="0.00" departDelay="0.16" arrival="123.00" arrivalLane="-E7.68_2" arrivalPos="109.33" arrivalSpeed="12.60" duration="80.00" routeLength="128.76" waitingTime="56.00" waitingCount="1" stopTime="0.00" timeLoss="69.09" rerouteNo="0" devices="tripinfo_S_left.1" vType="toy_car" speedFactor="1.07" vaporized=""/>
    <tripinfo id="S_through.3" depart="59.00" departLane="-E8_1" departPos="168.13" departSpeed="0.00" departDelay="0.05" arrival="123.00" arrivalLane="-E9_1" arrivalPos="167.13" arrivalSpeed="12.79" duration="64.00" routeLength="187.87" waitingTime="40.00" waitingCount="1" stopTime="0.00" timeLoss="48.74" rerouteNo="0" devices="tripinfo_S_through.3" vType="toy_car" speedFactor="0.93" vaporized=""/>
    <tripinfo id="S_through.4" depart="66.00" departLane="-E8_1" departPos="69.53" departSpeed="13.00" departDelay="0.06" arrival="125.00" arrivalLane="-E9_1" arrivalPos="167.13" arrivalSpeed="12.99" duration="59.00" routeLength="286.47" waitingTime="20.00" waitingCount="1" stopTime="0.00" timeLoss="36.30" rerouteNo="0" devices="tripinfo_S_through.4" vType="toy_car" speedFactor="1.05" vaporized=""/>
    <tripinfo id="S_through.5" depart="80.00" departLane="-E8_1" departPos="61.91" departSpeed="13.00" departDelay="0.68" arrival="127.00" arrivalLane="-E9_1" arrivalPos="167.13" arrivalSpeed="12.89" duration="47.00" routeLength="294.09" waitingTime="7.00" waitingCount="1" stopTime="0.00" timeLoss="23.75" rerouteNo="0" devices="tripinfo_S_through.5" vType="toy_car" speedFactor="1.23" vaporized=""/>
    <tripinfo id="S_through.6" depart="85.00" departLane="-E8_1" departPos="53.45" departSpeed="13.00" departDelay="0.36" arrival="129.00" arrivalLane="-E9_1" arrivalPos="167.13" arrivalSpeed="12.76" duration="44.00" routeLength="302.55" waitingTime="3.00" waitingCount="1" stopTime="0.00" timeLoss="19.94" rerouteNo="0" devices="tripinfo_S_through.6" vType="toy_car" speedFactor="1.05" vaporized=""/>
    <tripinfo id="S_through.7" depart="95.00" departLane="-E8_1" departPos="47.64" departSpeed="12.93" departDelay="0.42" arrival="131.00" arrivalLane="-E9_1" arrivalPos="167.13" arrivalSpeed="12.68" duration="36.00" routeLength="308.36" waitingTime="0.00" waitingCount="0" stopTime="0.00" timeLoss="11.44" rerouteNo="0" devices="tripinfo_S_through.7" vType="toy_car" speedFactor="0.93" vaporized=""/>
    <tripinfo id="S_through.8" depart="95.00" departLane="-E8_1" departPos="26.20" departSpeed="13.00" departDelay="0.13" arrival="133.00" arrivalLane="-E9_1" arrivalPos="167.13" arrivalSpeed="12.53" duration="38.00" routeLength="329.80" waitingTime="0.00" waitingCount="0" stopTime="0.00" timeLoss="11.76" rerouteNo="0" devices="tripinfo_S_through.8" vType="toy_car" speedFactor="1.01" vaporized=""/>
    <tripinfo id="S_through.9" depart="106.00" departLane="-E8_1" departPos="31.65" departSpeed="13.00" departDelay="0.24" arrival="135.00" arrivalLane="-E9_1" arrivalPos="167.13" arrivalSpeed="12.67" duration="29.00" routeLength="324.35" waitingTime="0.00" waitingCount="0" stopTime="0.00" timeLoss="3.64" rerouteNo="0" devices="tripinfo_S_through.9" vType="toy_car" speedFactor="1.04" vaporized=""/>
    <tripinfo id="N_left.1" depart="58.00" departLane="E9_2" departPos="167.03" departSpeed="0.00" departDelay="0.63" arrival="145.00" arrivalLane="E7.61_2" arrivalPos="185.68" arrivalSpeed="12.63" duration="87.00" routeLength="204.87" waitingTime="58.00" waitingCount="2" stopTime="0.00" timeLoss="70.09" rerouteNo="0" devices="tripinfo_N_left.1" vType="toy_car" speedFactor="0.96" vaporized=""/>
    <tripinfo id="N_left.2" depart="92.00" departLane="E9_2" departPos="68.43" departSpeed="13.00" departDelay="0.59" arrival="149.00" arrivalLane="E7.61_2" arrivalPos="185.68" arrivalSpeed="13.00" duration="57.00" routeLength="303.47" waitingTime="14.00" waitingCount="1" stopTime="0.00" timeLoss="32.71" rerouteNo="0" devices="tripinfo_N_left.2" vType="toy_car" speedFactor="1.07" vaporized=""/>
    <tripinfo id="E_through.4" depart="130.00" departLane="-E7_1" departPos="185.58" departSpeed="0.00" departDelay="0.15" arrival="149.00" arrivalLane="-E7.68_1" arrivalPos="109.33" arrivalSpeed="12.97" duration="19.00" routeLength="130.54" waitingTime="0.00" waitingCount="0" stopTime="0.00" timeLoss="8.59" rerouteNo="0" devices="tripinfo_E_through.4" vType="toy_car" speedFactor="0.96" vaporized=""/>
    <tripinfo id="W_through.11" depart="113.00" departLane="E7_1" departPos="109.22" departSpeed="0.00" departDelay="0.30" arrival="155.00" arrivalLane="E7.61_1" arrivalPos="185.68" arrivalSpeed="11.60" duration="42.00" routeLength="206.69" waitingTime="17.00" waitingCount="1" stopTime="0.00" timeLoss="24.60" rerouteNo="0" devices="tripinfo_W_through.11" vType="toy_car" speedFactor="0.87" vaporized=""/>
    <tripinfo id="W_through.12" depart="119.00" departLane="E7_1" departPos="10.62" departSpeed="13.00" departDelay="0.66" arrival="157.00" arrivalLane="E7.61_1" arrivalPos="185.68" arrivalSpeed="12.69" duration="38.00" routeLength="305.29" waitingTime="0.00" waitingCount="0" stopTime="0.00" timeLoss="14.22" rerouteNo="0" devices="tripinfo_W_through.12" vType="toy_car" speedFactor="1.00" vaporized=""/>
    <tripinfo id="W_right.1" depart="129.00" departLane="E7_1" departPos="2.93" departSpeed="13.00" departDelay="0.09" arrival="169.00" arrivalLane="E8_1" arrivalPos="168.23" arrivalSpeed="12.76" duration="40.00" routeLength="283.69" waitingTime="2.00" waitingCount="1" stopTime="0.00" timeLoss="16.82" rerouteNo="0" devices="tripinfo_W_right.1" vType="toy_car" speedFactor="1.00" vaporized=""/>
    <tripinfo id="W_through.13" depart="136.00" departLane="E7_1" departPos="2.74" departSpeed="13.00" departDelay="0.40" arrival="173.00" arrivalLane="E7.61_1" arrivalPos="185.68" arrivalSpeed="12.68" duration="37.00" routeLength="313.17" waitingTime="0.00" waitingCount="0" stopTime="0.00" timeLoss="12.20" rerouteNo="0" devices="tripinfo_W_through.13" vType="toy_car" speedFactor="1.12" vaporized=""/>
    <tripinfo id="W_through.14" depart="137.00" departLane="E7_1" departPos="6.85" departSpeed="12.00" departDelay="0.32" arrival="175.00" arrivalLane="E7.61_1" arrivalPos="185.68" arrivalSpeed="11.82" duration="38.00" routeLength="309.06" waitingTime="0.00" waitingCount="0" stopTime="0.00" timeLoss="12.16" rerouteNo="0" devices="tripinfo_W_through.14" vType="toy_car" speedFactor="0.86" vaporized=""/>
    <tripinfo id="W_through.15" depart="151.00" departLane="E7_1" departPos="0.87" departSpeed="13.00" departDelay="10.74" arrival="178.00" arrivalLane="E7.61_1" arrivalPos="185.68" arrivalSpeed="12.57" duration="27.00" routeLength="315.04" waitingTime="0.00" waitingCount="0" stopTime="0.00" timeLoss="2.11" rerouteNo="0" devices="tripinfo_W_through.15" vType="toy_car" speedFactor="0.99" vaporized=""/>
    <tripinfo id="W_through.16" depart="155.00" departLane="E7_1" departPos="5.93" departSpeed="13.00" departDelay="2.03" arrival="180.00" arrivalLane="E7.61_1" arrivalPos="185.68" arrivalSpeed="12.63" duration="25.00" routeLength="309.98" waitingTime="0.00" waitingCount="0" stopTime="0.00" timeLoss="0.87" rerouteNo="0" devices="tripinfo_W_through.16" vType="toy_car" speedFactor="1.00" vaporized=""/>
    <tripinfo id="W_through.17" depart="157.00" departLane="E7_1" departPos="0.06" departSpeed="13.00" departDelay="3.65" arrival="182.00" arrivalLane="E7.61_1" arrivalPos="185.68" arrivalSpeed="12.95" duration="25.00" routeLength="315.85" waitingTime="0.00" waitingCount="0" stopTime="0.00" timeLoss="0.56" rerouteNo="0" devices="tripinfo_W_through.17" vType="toy_car" speedFactor="0.97" vaporized=""/>
    <tripinfo id="W_through.18" depart="160.00" departLane="E7_1" departPos="12.01" departSpeed="13.00" departDelay="6.22" arrival="184.00" arrivalLane="E7.61_1" arrivalPos="185.68" arrivalSpeed="12.85" duration="24.00" routeLength="303.90" waitingTime="0.00" waitingCount="0" stopTime="0.00" timeLoss="0.52" rerouteNo="0" devices="tripinfo_W_through.18" vType="toy_car" speedFactor="0.94" vaporized=""/>
    <tripinfo id="W_through.19" depart="162.00" departLane="E7_1" departPos="8.85" departSpeed="13.00" departDelay="7.97" arrival="187.00" arrivalLane="E7.61_1" arrivalPos="185.68" arrivalSpeed="12.96" duration="25.00" routeLength="307.06" waitingTime="0.00" waitingCount="0" stopTime="0.00" timeLoss="0.41" rerouteNo="0" devices="tripinfo_W_through.19" vType="toy_car" speedFactor="1.03" vaporized=""/>
    <tripinfo id="W_through.20" depart="163.00" departLane="E7_1" departPos="1.04" departSpeed="13.00" departDelay="4.85" arrival="188.00" arrivalLane="E7.61_1" arrivalPos="185.68" arrivalSpeed="12.94" duration="25.00" routeLength="314.87" waitingTime="0.00" waitingCount="0" stopTime="0.00" timeLoss="0.61" rerouteNo="0" devices="tripinfo_W_through.20" vType="toy_car" speedFactor="1.21" vaporized=""/>
    <tripinfo id="W_through.21" depart="167.00" departLane="E7_1" departPos="24.66" departSpeed="13.00" departDelay="0.30" arrival="190.00" arrivalLane="E7.61_1" arrivalPos="185.68" arrivalSpeed="12.84" duration="23.00" routeLength="291.25" waitingTime="0.00" waitingCount="0" stopTime="0.00" timeLoss="0.49" rerouteNo="0" devices="tripinfo_W_through.21" vType="toy_car" speedFactor="0.97" vaporized=""/>
    <tripinfo id="W_right.2" depart="181.00" departLane="E7_1" departPos="109.22" departSpeed="0.00" departDelay="0.04" arrival="203.00" arrivalLane="E8_1" arrivalPos="168.23" arrivalSpeed="11.49" duration="22.00" routeLength="177.40" waitingTime="0.00" waitingCount="0" stopTime="0.00" timeLoss="6.11" rerouteNo="0" devices="tripinfo_W_right.2" vType="toy_car" speedFactor="0.86" vaporized=""/>
    <personinfo id="ped_E_to_W.2" depart="20.00" type="pedType" speedFactor="1.10" duration="192.00" waitingTime="0.00" timeLoss="19.99" traveltime="192.00">
        <walk depart="20.00" departPos="0.00" arrival="212.00" arrivalPos="54.66" duration="192.00" routeLength="262.01" timeLoss="19.99" maxSpeed="1.52" waitingTime="0.00"/>
    </personinfo>
    <personinfo id="ped_W_to_E.2" depart="20.00" type="pedType" speedFactor="1.04" duration="195.00" waitingTime="19.00" timeLoss="40.12" traveltime="195.00">
        <walk depart="20.00" departPos="0.00" arrival="215.00" arrivalPos="92.84" duration="195.00" routeLength="223.50" timeLoss="40.12" maxSpeed="1.44" waitingTime="19.00"/>
    </personinfo>
    <personinfo id="ped_W_to_E.1" depart="10.00" type="pedType" speedFactor="1.04" duration="205.00" waitingTime="31.00" timeLoss="50.26" traveltime="205.00">
        <walk depart="10.00" departPos="0.00" arrival="215.00" arrivalPos="92.84" duration="205.00" routeLength="223.50" timeLoss="50.26" maxSpeed="1.44" waitingTime="31.00"/>
    </personinfo>
    <personinfo id="ped_W_to_E.4" depart="39.00" type="pedType" speedFactor="1.16" duration="177.00" waitingTime="10.00" timeLoss="38.86" traveltime="177.00">
        <walk depart="39.00" departPos="0.00" arrival="216.00" arrivalPos="92.84" duration="177.00" routeLength="223.50" timeLoss="38.86" maxSpeed="1.62" waitingTime="10.00"/>
    </personinfo>
    <personinfo id="ped_W_to_E.3" depart="29.00" type="pedType" speedFactor="1.02" duration="189.00" waitingTime="10.00" timeLoss="31.84" traveltime="189.00">
        <walk depart="29.00" departPos="0.00" arrival="218.00" arrivalPos="92.84" duration="189.00" routeLength="223.50" timeLoss="31.84" maxSpeed="1.42" waitingTime="10.00"/>
    </personinfo>
    <personinfo id="ped_W_to_E.5" depart="48.00" type="pedType" speedFactor="1.05" duration="171.00" waitingTime="0.00" timeLoss="17.66" traveltime="171.00">
        <walk depart="48.00" departPos="0.00" arrival="219.00" arrivalPos="92.84" duration="171.00" routeLength="223.50" timeLoss="17.66" maxSpeed="1.46" waitingTime="0.00"/>
    </personinfo>
    <tripinfo id="N_right.1" depart="128.00" departLane="E9_1" departPos="76.27" departSpeed="12.40" departDelay="0.68" arrival="219.00" arrivalLane="-E7.68_1" arrivalPos="109.33" arrivalSpeed="12.25" duration="91.00" routeLength="209.53" waitingTime="59.00" waitingCount="1" stopTime="0.00" timeLoss="73.38" rerouteNo="0" devices="tripinfo_N_right.1" vType="toy_car" speedFactor="0.89" vaporized=""/>
    <personinfo id="ped_W_to_E.0" depart="0.00" type="pedType" speedFactor="1.00" duration="222.00" waitingTime="38.00" timeLoss="60.79" traveltime="222.00">
        <walk depart="0.00" departPos="0.00" arrival="222.00" arrivalPos="92.84" duration="222.00" routeLength="223.50" timeLoss="60.79" maxSpeed="1.39" waitingTime="38.00"/>
    </personinfo>
    <personinfo id="ped_W_to_E.7" depart="67.00" type="pedType" speedFactor="1.19" duration="155.00" waitingTime="0.00" timeLoss="19.21" traveltime="155.00">
        <walk depart="67.00" departPos="0.00" arrival="222.00" arrivalPos="92.84" duration="155.00" routeLength="223.50" timeLoss="19.21" maxSpeed="1.65" waitingTime="0.00"/>
    </personinfo>
    <tripinfo id="S_through.10" depart="127.00" departLane="-E8_1" departPos="88.90" departSpeed="12.03" departDelay="5.44" arrival="222.00" arrivalLane="-E9_1" arrivalPos="167.13" arrivalSpeed="12.81" duration="95.00" routeLength="267.10" waitingTime="64.00" waitingCount="1" stopTime="0.00" timeLoss="74.06" rerouteNo="0" devices="tripinfo_S_through.10" vType="toy_car" speedFactor="0.95" vaporized=""/>
    <tripinfo id="N_through.2" depart="127.00" departLane="E9_1" departPos="167.03" departSpeed="0.00" departDelay="1.29" arrival="223.00" arrivalLane="E8_1" arrivalPos="168.23" arrivalSpeed="12.91" duration="96.00" routeLength="188.98" waitingTime="72.00" waitingCount="1" stopTime="0.00" timeLoss="80.88" rerouteNo="0" devices="tripinfo_N_through.2" vType="toy_car" speedFactor="1.12" vaporized=""/>
    <tripinfo id="S_through.11" depart="127.00" departLane="-E8_1" departPos="56.61" departSpeed="13.00" departDelay="2.81" arrival="224.00" arrivalLane="-E9_1" arrivalPos="167.13" arrivalSpeed="12.74" duration="97.00" routeLength="299.39" waitingTime="61.00" waitingCount="1" stopTime="0.00" timeLoss="73.41" rerouteNo="0" devices="tripinfo_S_through.11" vType="toy_car" speedFactor="0.96" vaporized=""/>
    <tripinfo id="S_through.12" depart="130.00" departLane="-E8_1" departPos="70.25" departSpeed="12.92" departDelay="0.60" arrival="226.00" arrivalLane="-E9_1" arrivalPos="167.13" arrivalSpeed="12.65" duration="96.00" routeLength="285.75" waitingTime="60.00" waitingCount="1" stopTime="0.00" timeLoss="73.47" rerouteNo="0" devices="tripinfo_S_through.12" vType="toy_car" speedFactor="0.93" vaporized=""/>
    <tripinfo id="N_through.3" depart="146.00" departLane="E9_1" departPos="60.93" departSpeed="13.00" departDelay="0.50" arrival="227.00" arrivalLane="E8_1" arrivalPos="168.23" arrivalSpeed="12.72" duration="81.00" routeLength="295.08" waitingTime="41.00" waitingCount="1" stopTime="0.00" timeLoss="57.51" rerouteNo="0" devices="tripinfo_N_through.3" vType="toy_car" speedFactor="0.98" vaporized=""/>
    <tripinfo id="S_through.13" depart="130.00" departLane="-E8_1" departPos="48.65" departSpeed="13.00" departDelay="0.42" arrival="228.00" arrivalLane="-E9_1" arrivalPos="167.13" arrivalSpeed="12.78" duration="98.00" routeLength="307.35" waitingTime="60.00" waitingCount="1" stopTime="0.00" timeLoss="73.86" rerouteNo="0" devices="tripinfo_S_through.13" vType="toy_car" speedFactor="0.96" vaporized=""/>
    <tripinfo id="N_through.4" depart="156.00" departLane="E9_1" departPos="60.07" departSpeed="12.48" departDelay="0.70" arrival="229.00" arrivalLane="E8_1" arrivalPos="168.23" arrivalSpeed="12.47" duration="73.00" routeLength="295.94" waitingTime="32.00" waitingCount="1" stopTime="0.00" timeLoss="49.21" rerouteNo="0" devices="tripinfo_N_through.4" vType="toy_car" speedFactor="0.90" vaporized=""/>
    <tripinfo id="S_through.14" depart="136.00" departLane="-E8_1" departPos="70.73" departSpeed="13.00" departDelay="0.74" arrival="230.00" arrivalLane="-E9_1" arrivalPos="167.13" arrivalSpeed="12.70" duration="94.00" routeLength="285.27" waitingTime="56.00" waitingCount="1" stopTime="0.00" timeLoss="71.51" rerouteNo="0" devices="tripinfo_S_through.14" vType="toy_car" speedFactor="1.09" vaporized=""/>
    <tripinfo id="N_through.5" depart="158.00" departLane="E9_1" departPos="42.57" departSpeed="13.00" departDelay="0.09" arrival="231.00" arrivalLane="E8_1" arrivalPos="168.23" arrivalSpeed="12.55" duration="73.00" routeLength="313.44" waitingTime="30.00" waitingCount="1" stopTime="0.00" timeLoss="48.60" rerouteNo="0" devices="tripinfo_N_through.5" vType="toy_car" speedFactor="1.01" vaporized=""/>
    <tripinfo id="S_through.15" depart="169.00" departLane="-E8_1" departPos="44.17" departSpeed="12.57" departDelay="0.46" arrival="232.00" arrivalLane="-E9_1" arrivalPos="167.13" arrivalSpeed="12.37" duration="63.00" routeLength="311.83" waitingTime="22.00" waitingCount="1" stopTime="0.00" timeLoss="38.04" rerouteNo="0" devices="tripinfo_S_through.15" vType="toy_car" speedFactor="0.91" vaporized=""/>
    <tripinfo id="N_through.6" depart="170.00" departLane="E9_1" departPos="43.00" departSpeed="12.59" departDelay="0.37" arrival="233.00" arrivalLane="E8_1" arrivalPos="168.23" arrivalSpeed="12.38" duration="63.00" routeLength="313.01" waitingTime="20.00" waitingCount="1" stopTime="0.00" timeLoss="38.09" rerouteNo="0" devices="tripinfo_N_through.6" vType="toy_car" speedFactor="0.91" vaporized=""/>
    <tripinfo id="S_through.16" depart="194.00" departLane="-E8_1" departPos="31.12" departSpeed="13.00" departDelay="0.24" arrival="234.00" arrivalLane="-E9_1" arrivalPos="167.13" arrivalSpeed="12.78" duration="40.00" routeLength="324.88" waitingTime="0.00" waitingCount="0" stopTime="0.00" timeLoss="14.69" rerouteNo="0" devices="tripinfo_S_through.16" vType="toy_car" speedFactor="1.00" vaporized=""/>
    <tripinfo id="N_through.7" depart="188.00" departLane="E9_1" departPos="30.92" departSpeed="13.00" departDelay="0.36" arrival="235.00" arrivalLane="E8_1" arrivalPos="168.23" arrivalSpeed="12.95" duration="47.00" routeLength="325.09" waitingTime="4.00" waitingCount="1" stopTime="0.00" timeLoss="21.71" rerouteNo="0" devices="tripinfo_N_through.7" vType="toy_car" speedFactor="0.98" vaporized=""/>