<?xml version="1.0" encoding="UTF-8"?>

<!-- generated on 2026-04-03T14:47:46.525580-05:00 by Eclipse SUMO GUI 1.26.0
<sumoConfiguration xmlns:xsi="http://www.w3.org/2001/XMLSchema-instance" xsi:noNamespaceSchemaLocation="http://sumo.dlr.de/xsd/sumoConfiguration.xsd">

    <input>
        <net-file value="Dundas_Church.net.xml"/>
        <route-files value="simTraffic/dundas_church_pm_peak_insert.rou.xml,simTraffic/dundas_church_pedestrian.rou.xml"/>
    </input>

    <output>
        <summary-output value="pm_peak_ai_summary.xml"/>
        <tripinfo-output value="pm_peak_ai_tripinfo.xml"/>
        <tripinfo-output.write-unfinished value="true"/>
    </output>

    <time>
        <begin value="0"/>
        <end value="3600"/>
    </time>

    <processing>
        <max-depart-delay value="-1"/>
    </processing>

    <report>
        <duration-log.disable value="true"/>
    </report>

    <traci_server>
        <remote-port value="55415"/>
    </traci_server>

    <random_number>
        <seed value="42"/>
    </random_number>

</sumoConfiguration>
-->

<tripinfos xmlns:xsi="http://www.w3.org/2001/XMLSchema-instance" xsi:noNamespaceSchemaLocation="http://sumo.dlr.de/xsd/tripinfo_file.xsd">
    <tripinfo id="N_through.0" depart="3.00" departLane="E9_1" departPos="167.03" departSpeed="13.00" departDelay="0.21" arrival="18.00" arrivalLane="E8_1" arrivalPos="168.23" arrivalSpeed="12.50" duration="15.00" routeLength="188.98" waitingTime="0.00" waitingCount="0" stopTime="0.00" timeLoss="0.29" rerouteNo="0" devices="tripinfo_N_through.0" vType="toy_car" speedFactor="0.95" vaporized=""/>
    <tripinfo id="S_through.0" depart="4.00" departLane="-E8_1" departPos="168.13" departSpeed="12.75" departDelay="0.62" arrival="19.00" arrivalLane="-E9_1" arrivalPos="167.13" arrivalSpeed="12.50" duration="15.00" routeLength="187.87" waitingTime="0.00" waitingCount="0" stopTime="0.00" timeLoss="0.20" rerouteNo="0" devices="tripinfo_S_through.0" vType="toy_car" speedFactor="0.92" vaporized=""/>
    <tripinfo id="S_through.1" depart="5.00" departLane="-E8_1" departPos="154.98" departSpeed="13.00" departDelay="0.06" arrival="21.00" arrivalLane="-E9_1" arrivalPos="167.13" arrivalSpeed="12.85" duration="16.00" routeLength="201.02" waitingTime="0.00" waitingCount="0" stopTime="0.00" timeLoss="0.40" rerouteNo="0" devices="tripinfo_S_through.1" vType="toy_car" speedFactor="1.02" vaporized=""/>
    <tripinfo id="N_left.0" depart="4.00" departLane="E9_2" departPos="167.03" departSpeed="0.00" departDelay="0.50" arrival="31.00" arrivalLane="E7.61_2" arrivalPos="185.68" arrivalSpeed="12.69" duration="27.00" routeLength="204.87" waitingTime="0.00" waitingCount="0" stopTime="0.00" timeLoss="10.42" rerouteNo="0" devices="tripinfo_N_left.0" vType="toy_car" speedFactor="1.13" vaporized=""/>
    <tripinfo id="S_through.2" depart="17.00" departLane="-E8_1" departPos="168.13" departSpeed="13.00" departDelay="0.16" arrival="32.00" arrivalLane="-E9_1" arrivalPos="167.13" arrivalSpeed="12.95" duration="15.00" routeLength="187.87" waitingTime="0.00" waitingCount="0" stopTime="0.00" timeLoss="0.29" rerouteNo="0" devices="tripinfo_S_through.2" vType="toy_car" speedFactor="1.01" vaporized=""/>
    <tripinfo id="S_left.0" depart="16.00" departLane="-E8_2" departPos="168.13" departSpeed="0.00" departDelay="0.28" arrival="37.00" arrivalLane="-E7.68_2" arrivalPos="109.33" arrivalSpeed="12.61" duration="21.00" routeLength="128.76" waitingTime="0.00" waitingCount="0" stopTime="0.00" timeLoss="10.35" rerouteNo="0" devices="tripinfo_S_left.0" vType="toy_car" speedFactor="1.05" vaporized=""/>
    <tripinfo id="E_through.0" depart="8.00" departLane="-E7_1" departPos="137.06" departSpeed="9.26" departDelay="0.71" arrival="52.00" arrivalLane="-E7.68_1" arrivalPos="109.33" arrivalSpeed="9.30" duration="44.00" routeLength="179.06" waitingTime="16.00" waitingCount="1" stopTime="0.00" timeLoss="24.47" rerouteNo="0" devices="tripinfo_E_through.0" vType="toy_car" speedFactor="0.69" vaporized=""/>
    <tripinfo id="E_through.1" depart="15.00" departLane="-E7_1" departPos="86.08" departSpeed="13.00" departDelay="0.53" arrival="54.00" arrivalLane="-E7.68_1" arrivalPos="109.33" arrivalSpeed="10.88" duration="39.00" routeLength="230.04" waitingTime="3.00" waitingCount="1" stopTime="0.00" timeLoss="20.76" rerouteNo="0" devices="tripinfo_E_through.1" vType="toy_car" speedFactor="1.04" vaporized=""/>
    <tripinfo id="W_through.0" depart="14.00" departLane="E7_1" departPos="109.22" departSpeed="0.00" departDelay="0.65" arrival="55.00" arrivalLane="E7.61_1" arrivalPos="185.68" arrivalSpeed="12.97" duration="41.00" routeLength="206.69" waitingTime="17.00" waitingCount="1" stopTime="0.00" timeLoss="24.90" rerouteNo="0" devices="tripinfo_W_through.0" vType="toy_car" speedFactor="1.09" vaporized=""/>
    <tripinfo id="E_through.2" depart="20.00" departLane="-E7_1" departPos="77.49" departSpeed="13.00" departDelay="0.66" arrival="56.00" arrivalLane="-E7.68_1" arrivalPos="109.33" arrivalSpeed="11.39" duration="36.00" routeLength="238.63" waitingTime="0.00" waitingCount="0" stopTime="0.00" timeLoss="17.23" rerouteNo="0" devices="tripinfo_E_through.2" vType="toy_car" speedFactor="1.25" vaporized=""/>
    <tripinfo id="W_through.1" depart="28.00" departLane="E7_1" departPos="10.62" departSpeed="13.00" departDelay="0.67" arrival="57.00" arrivalLane="E7.61_1" arrivalPos="185.68" arrivalSpeed="12.89" duration="29.00" routeLength="305.29" waitingTime="0.00" waitingCount="0" stopTime="0.00" timeLoss="5.49" rerouteNo="0" devices="tripinfo_W_through.1" vType="toy_car" speedFactor="1.17" vaporized=""/>
    <tripinfo id="W_through.2" depart="30.00" departLane="E7_1" departPos="0.43" departSpeed="13.00" departDelay="2.45" arrival="59.00" arrivalLane="E7.61_1" arrivalPos="185.68" arrivalSpeed="12.86" duration="29.00" routeLength="315.48" waitingTime="0.00" waitingCount="0" stopTime="0.00" timeLoss="4.66" rerouteNo="0" devices="tripinfo_W_through.2" vType="toy_car" speedFactor="1.13" vaporized=""/>
    <tripinfo id="W_through.3" depart="37.00" departLane="E7_1" departPos="2.11" departSpeed="13.00" departDelay="7.11" arrival="63.00" arrivalLane="E7.61_1" arrivalPos="185.68" arrivalSpeed="12.95" duration="26.00" routeLength="313.80" waitingTime="0.00" waitingCount="0" stopTime="0.00" timeLoss="0.96" rerouteNo="0" devices="tripinfo_W_through.3" vType="toy_car" speedFactor="1.10" vaporized=""/>
    <tripinfo id="W_through.4" depart="39.00" departLane="E7_1" departPos="1.10" departSpeed="13.00" departDelay="7.79" arrival="65.00" arrivalLane="E7.61_1" arrivalPos="185.68" arrivalSpeed="12.65" duration="26.00" routeLength="314.81" waitingTime="0.00" waitingCount="0" stopTime="0.00" timeLoss="0.89" rerouteNo="0" devices="tripinfo_W_through.4" vType="toy_car" speedFactor="1.00" vaporized=""/>
    <tripinfo id="E_right.0" depart="44.00" departLane="-E7_1" departPos="185.58" departSpeed="0.00" departDelay="0.02" arrival="66.00" arrivalLane="-E9_1" arrivalPos="167.13" arrivalSpeed="12.06" duration="22.00" routeLength="176.23" waitingTime="0.00" waitingCount="0" stopTime="0.00" timeLoss="6.77" rerouteNo="0" devices="tripinfo_E_right.0" vType="toy_car" speedFactor="0.90" vaporized=""/>
    <tripinfo id="W_through.5" depart="42.00" departLane="E7_1" departPos="6.67" departSpeed="13.00" departDelay="10.33" arrival="67.00" arrivalLane="E7.61_1" arrivalPos="185.68" arrivalSpeed="12.65" duration="25.00" routeLength="309.24" waitingTime="0.00" waitingCount="0" stopTime="0.00" timeLoss="0.51" rerouteNo="0" devices="tripinfo_W_through.5" vType="toy_car" speedFactor="0.97" vaporized=""/>
    <tripinfo id="W_through.6" depart="44.00" departLane="E7_1" departPos="5.52" departSpeed="13.00" departDelay="1.20" arrival="69.00" arrivalLane="E7.61_1" arrivalPos="185.68" arrivalSpeed="12.59" duration="25.00" routeLength="310.39" waitingTime="0.00" waitingCount="0" stopTime="0.00" timeLoss="0.64" rerouteNo="0" devices="tripinfo_W_through.6" vType="toy_car" speedFactor="1.05" vaporized=""/>
    <tripinfo id="W_through.7" depart="46.00" departLane="E7_1" departPos="9.98" departSpeed="13.00" departDelay="3.14" arrival="71.00" arrivalLane="E7.61_1" arrivalPos="185.68" arrivalSpeed="12.75" duration="25.00" routeLength="305.93" waitingTime="0.00" waitingCount="0" stopTime="0.00" timeLoss="0.82" rerouteNo="0" devices="tripinfo_W_through.7" vType="toy_car" speedFactor="1.22" vaporized=""/>
    <tripinfo id="W_through.8" depart="56.00" departLane="E7_1" departPos="109.22" departSpeed="12.69" departDelay="0.96" arrival="73.00" arrivalLane="E7.61_1" arrivalPos="185.68" arrivalSpeed="12.61" duration="17.00" routeLength="206.69" waitingTime="0.00" waitingCount="0" stopTime="0.00" timeLoss="0.31" rerouteNo="0" devices="tripinfo_W_through.8" vType="toy_car" speedFactor="0.91" vaporized=""/>
    <tripinfo id="N_through.1" depart="38.00" departLane="E9_1" departPos="88.90" departSpeed="11.94" departDelay="0.24" arrival="87.00" arrivalLane="E8_1" arrivalPos="168.23" arrivalSpeed="12.53" duration="49.00" routeLength="267.11" waitingTime="17.00" waitingCount="1" stopTime="0.00" timeLoss="27.70" rerouteNo="0" devices="tripinfo_N_through.1" vType="toy_car" speedFactor="0.92" vaporized=""/>
    <tripinfo id="S_left.1" depart="43.00" departLane="-E8_2" departPos="115.90" departSpeed="9.63" departDelay="0.16" arrival="87.00" arrivalLane="-E7.68_2" arrivalPos="109.33" arrivalSpeed="12.60" duration="44.00" routeLength="180.99" waitingTime="14.00" waitingCount="1" stopTime="0.00" timeLoss="29.10" rerouteNo="0" devices="tripinfo_S_left.1" vType="toy_car" speedFactor="1.07" vaporized=""/>
    <tripinfo id="S_through.3" depart="59.00" departLane="-E8_1" departPos="168.13" departSpeed="0.00" departDelay="0.05" arrival="87.00" arrivalLane="-E9_1" arrivalPos="167.13" arrivalSpeed="12.65" duration="28.00" routeLength="187.87" waitingTime="4.00" waitingCount="1" stopTime="0.00" timeLoss="12.99" rerouteNo="0" devices="tripinfo_S_through.3" vType="toy_car" speedFactor="0.93" vaporized=""/>
    <tripinfo id="S_through.4" depart="66.00" departLane="-E8_1" departPos="74.50" departSpeed="13.00" departDelay="0.06" arrival="90.00" arrivalLane="-E9_1" arrivalPos="167.13" arrivalSpeed="12.98" duration="24.00" routeLength="281.50" waitingTime="0.00" waitingCount="0" stopTime="0.00" timeLoss="1.91" rerouteNo="0" devices="tripinfo_S_through.4" vType="toy_car" speedFactor="1.05" vaporized=""/>
    <tripinfo id="N_right.0" depart="77.00" departLane="E9_1" departPos="167.03" departSpeed="0.00" departDelay="0.15" arrival="94.00" arrivalLane="-E7.68_1" arrivalPos="109.33" arrivalSpeed="12.38" duration="17.00" routeLength="118.77" waitingTime="0.00" waitingCount="0" stopTime="0.00" timeLoss="6.37" rerouteNo="0" devices="tripinfo_N_right.0" vType="toy_car" speedFactor="0.89" vaporized=""/>
    <tripinfo id="S_through.5" depart="82.00" departLane="-E8_1" departPos="168.13" departSpeed="13.00" departDelay="2.68" arrival="97.00" arrivalLane="-E9_1" arrivalPos="167.13" arrivalSpeed="12.73" duration="15.00" routeLength="187.87" waitingTime="0.00" waitingCount="0" stopTime="0.00" timeLoss="0.22" rerouteNo="0" devices="tripinfo_S_through.5" vType="toy_car" speedFactor="1.23" vaporized=""/>
    <tripinfo id="N_left.1" depart="58.00" departLane="E9_2" departPos="167.03" departSpeed="0.00" departDelay="0.63" arrival="99.00" arrivalLane="E7.61_2" arrivalPos="185.68" arrivalSpeed="12.71" duration="41.00" routeLength="204.87" waitingTime="12.00" waitingCount="2" stopTime="0.00" timeLoss="23.97" rerouteNo="0" devices="tripinfo_N_left.1" vType="toy_car" speedFactor="0.96" vaporized=""/>
    <tripinfo id="S_through.6" depart="85.00" departLane="-E8_1" departPos="168.13" departSpeed="13.00" departDelay="0.36" arrival="100.00" arrivalLane="-E9_1" arrivalPos="167.13" arrivalSpeed="12.79" duration="15.00" routeLength="187.87" waitingTime="0.00" waitingCount="0" stopTime="0.00" timeLoss="0.24" rerouteNo="0" devices="tripinfo_S_through.6" vType="toy_car" speedFactor="1.05" vaporized=""/>
    <tripinfo id="E_through.3" depart="60.00" departLane="-E7_1" departPos="185.58" departSpeed="0.00" departDelay="0.07" arrival="119.00" arrivalLane="-E7.68_1" arrivalPos="109.33" arrivalSpeed="12.72" duration="59.00" routeLength="130.54" waitingTime="40.00" waitingCount="1" stopTime="0.00" timeLoss="48.26" rerouteNo="0" devices="tripinfo_E_through.3" vType="toy_car" speedFactor="1.04" vaporized=""/>
    <tripinfo id="N_left.2" depart="92.00" departLane="E9_2" departPos="167.03" departSpeed="0.00" departDelay="0.59" arrival="119.00" arrivalLane="E7.61_2" arrivalPos="185.68" arrivalSpeed="12.65" duration="27.00" routeLength="204.87" waitingTime="0.00" waitingCount="0" stopTime="0.00" timeLoss="10.01" rerouteNo="0" devices="tripinfo_N_left.2" vType="toy_car" speedFactor="1.07" vaporized=""/>
    <tripinfo id="W_right.0" depart="64.00" departLane="E7_1" departPos="109.22" departSpeed="0.00" departDelay="0.78" arrival="122.00" arrivalLane="E8_1" arrivalPos="168.23" arrivalSpeed="12.84" duration="58.00" routeLength="177.40" waitingTime="36.00" waitingCount="1" stopTime="0.00" timeLoss="42.99" rerouteNo="0" devices="tripinfo_W_right.0" vType="toy_car" speedFactor="1.08" vaporized=""/>
    <tripinfo id="W_through.9" depart="64.00" departLane="E7_1" departPos="10.62" departSpeed="13.00" departDelay="0.41" arrival="127.00" arrivalLane="E7.61_1" arrivalPos="185.68" arrivalSpeed="12.70" duration="63.00" routeLength="305.29" waitingTime="23.00" waitingCount="1" stopTime="0.00" timeLoss="39.00" rerouteNo="0" devices="tripinfo_W_through.9" vType="toy_car" speedFactor="1.04" vaporized=""/>
    <tripinfo id="E_right.1" depart="86.00" departLane="-E7_1" departPos="88.54" departSpeed="12.88" departDelay="0.70" arrival="127.00" arrivalLane="-E9_1" arrivalPos="167.13" arrivalSpeed="12.41" duration="41.00" routeLength="273.27" waitingTime="2.00" waitingCount="1" stopTime="0.00" timeLoss="18.71" rerouteNo="0" devices="tripinfo_E_right.1" vType="toy_car" speedFactor="0.93" vaporized=""/>
    <tripinfo id="W_through.10" depart="91.00" departLane="E7_1" departPos="3.12" departSpeed="13.00" departDelay="0.32" arrival="129.00" arrivalLane="E7.61_1" arrivalPos="185.68" arrivalSpeed="12.95" duration="38.00" routeLength="312.79" waitingTime="0.00" waitingCount="0" stopTime="0.00" timeLoss="13.49" rerouteNo="0" devices="tripinfo_W_through.10" vType="toy_car" speedFactor="1.00" vaporized=""/>
    <tripinfo id="W_through.11" depart="113.00" departLane="E7_1" departPos="68.69" departSpeed="12.09" departDelay="0.30" arrival="134.00" arrivalLane="E7.61_1" arrivalPos="185.68" arrivalSpeed="11.95" duration="21.00" routeLength="247.22" waitingTime="0.00" waitingCount="0" stopTime="0.00" timeLoss="0.36" rerouteNo="0" devices="tripinfo_W_through.11" vType="toy_car" speedFactor="0.87" vaporized=""/>
    <tripinfo id="W_through.12" depart="119.00" departLane="E7_1" departPos="103.63" departSpeed="13.00" departDelay="0.66" arrival="136.00" arrivalLane="E7.61_1" arrivalPos="185.68" arrivalSpeed="12.51" duration="17.00" routeLength="212.28" waitingTime="0.00" waitingCount="0" stopTime="0.00" timeLoss="0.63" rerouteNo="0" devices="tripinfo_W_through.12" vType="toy_car" speedFactor="1.00" vaporized=""/>
    <tripinfo id="S_through.7" depart="97.00" departLane="-E8_1" departPos="90.12" departSpeed="11.93" departDelay="2.42" arrival="156.00" arrivalLane="-E9_1" arrivalPos="167.13" arrivalSpeed="12.70" duration="59.00" routeLength="265.88" waitingTime="28.00" waitingCount="1" stopTime="0.00" timeLoss="38.18" rerouteNo="0" devices="tripinfo_S_through.7" vType="toy_car" speedFactor="0.93" vaporized=""/>
    <tripinfo id="N_through.2" depart="126.00" departLane="E9_1" departPos="167.03" departSpeed="0.00" departDelay="0.29" arrival="157.00" arrivalLane="E8_1" arrivalPos="168.23" arrivalSpeed="12.94" duration="31.00" routeLength="188.98" waitingTime="7.00" waitingCount="1" stopTime="0.00" timeLoss="16.28" rerouteNo="0" devices="tripinfo_N_through.2" vType="toy_car" speedFactor="1.12" vaporized=""/>
    <tripinfo id="S_through.8" depart="97.00" departLane="-E8_1" departPos="56.71" departSpeed="13.00" departDelay="2.13" arrival="159.00" arrivalLane="-E9_1" arrivalPos="167.13" arrivalSpeed="12.70" duration="62.00" routeLength="299.29" waitingTime="25.00" waitingCount="1" stopTime="0.00" timeLoss="38.58" rerouteNo="0" devices="tripinfo_S_through.8" vType="toy_car" speedFactor="1.01" vaporized=""/>
    <tripinfo id="S_through.9" depart="106.00" departLane="-E8_1" departPos="62.99" departSpeed="13.00" departDelay="0.24" arrival="161.00" arrivalLane="-E9_1" arrivalPos="167.13" arrivalSpeed="12.56" duration="55.00" routeLength="293.01" waitingTime="16.00" waitingCount="1" stopTime="0.00" timeLoss="32.08" rerouteNo="0" devices="tripinfo_S_through.9" vType="toy_car" speedFactor="1.04" vaporized=""/>
    <tripinfo id="S_through.10" depart="122.00" departLane="-E8_1" departPos="53.63" departSpeed="13.00" departDelay="0.44" arrival="163.00" arrivalLane="-E9_1" arrivalPos="167.13" arrivalSpeed="12.68" duration="41.00" routeLength="302.37" waitingTime="0.00" waitingCount="0" stopTime="0.00" timeLoss="17.15" rerouteNo="0" devices="tripinfo_S_through.10" vType="toy_car" speedFactor="0.95" vaporized=""/>
    <tripinfo id="N_right.1" depart="128.00" departLane="E9_1" departPos="76.27" departSpeed="12.40" departDelay="0.68" arrival="164.00" arrivalLane="-E7.68_1" arrivalPos="109.33" arrivalSpeed="12.26" duration="36.00" routeLength="209.53" waitingTime="3.00" waitingCount="1" stopTime="0.00" timeLoss="18.20" rerouteNo="0" devices="tripinfo_N_right.1" vType="toy_car" speedFactor="0.89" vaporized=""/>
    <tripinfo id="S_through.11" depart="125.00" departLane="-E8_1" departPos="45.20" departSpeed="13.00" departDelay="0.81" arrival="165.00" arrivalLane="-E9_1" arrivalPos="167.13" arrivalSpeed="12.68" duration="40.00" routeLength="310.80" waitingTime="0.00" waitingCount="0" stopTime="0.00" timeLoss="15.31" rerouteNo="0" devices="tripinfo_S_through.11" vType="toy_car" speedFactor="0.96" vaporized=""/>
    <tripinfo id="S_through.12" depart="130.00" departLane="-E8_1" departPos="38.81" departSpeed="12.92" departDelay="0.60" arrival="167.00" arrivalLane="-E9_1" arrivalPos="167.13" arrivalSpeed="12.81" duration="37.00" routeLength="317.19" waitingTime="0.00" waitingCount="0" stopTime="0.00" timeLoss="11.48" rerouteNo="0" devices="tripinfo_S_through.12" vType="toy_car" speedFactor="0.93" vaporized=""/>
    <tripinfo id="S_through.13" depart="130.00" departLane="-E8_1" departPos="17.20" departSpeed="13.00" departDelay="0.42" arrival="168.00" arrivalLane="-E9_1" arrivalPos="167.13" arrivalSpeed="12.80" duration="38.00" routeLength="338.80" waitingTime="0.00" waitingCount="0" stopTime="0.00" timeLoss="11.83" rerouteNo="0" devices="tripinfo_S_through.13" vType="toy_car" speedFactor="0.96" vaporized=""/>
    <tripinfo id="S_through.14" depart="136.00" departLane="-E8_1" departPos="20.73" departSpeed="13.00" departDelay="0.74" arrival="170.00" arrivalLane="-E9_1" arrivalPos="167.13" arrivalSpeed="12.52" duration="34.00" routeLength="335.27" waitingTime="0.00" waitingCount="0" stopTime="0.00" timeLoss="8.08" rerouteNo="0" devices="tripinfo_S_through.14" vType="toy_car" speedFactor="1.09" vaporized=""/>
    <tripinfo id="N_through.3" depart="146.00" departLane="E9_1" departPos="72.80" departSpeed="13.00" departDelay="0.50" arrival="170.00" arrivalLane="E8_1" arrivalPos="168.23" arrivalSpeed="12.84" duration="24.00" routeLength="283.21" waitingTime="0.00" waitingCount="0" stopTime="0.00" timeLoss="1.51" rerouteNo="0" devices="tripinfo_N_through.3" vType="toy_car" speedFactor="0.98" vaporized=""/>
    <tripinfo id="S_left.2" depart="151.00" departLane="-E8_2" departPos="168.13" departSpeed="0.00" departDelay="0.49" arrival="174.00" arrivalLane="-E7.68_2" arrivalPos="109.33" arrivalSpeed="12.87" duration="23.00" routeLength="128.76" waitingTime="0.00" waitingCount="0" stopTime="0.00" timeLoss="12.04" rerouteNo="0" devices="tripinfo_S_left.2" vType="toy_car" speedFactor="1.03" vaporized=""/>
    <personinfo id="ped_W_to_E.1" depart="10.00" type="pedType" speedFactor="1.04" duration="176.00" waitingTime="2.00" timeLoss="21.26" traveltime="176.00">
        <walk depart="10.00" departPos="0.00" arrival="186.00" arrivalPos="92.84" duration="176.00" routeLength="223.50" timeLoss="21.26" maxSpeed="1.44" waitingTime="2.00"/>
    </personinfo>
    <personinfo id="ped_W_to_E.0" depart="0.00" type="pedType" speedFactor="1.00" duration="190.00" waitingTime="8.00" timeLoss="28.79" traveltime="190.00">
        <walk depart="0.00" departPos="0.00" arrival="190.00" arrivalPos="92.84" duration="190.00" routeLength="223.50" timeLoss="28.79" maxSpeed="1.39" waitingTime="8.00"/>
    </personinfo>
    <personinfo id="ped_W_to_E.2" depart="20.00" type="pedType" speedFactor="1.04" duration="173.00" waitingTime="0.00" timeLoss="18.12" traveltime="173.00">
        <walk depart="20.00" departPos="0.00" arrival="193.00" arrivalPos="92.84" duration="173.00" routeLength="223.50" timeLoss="18.12" maxSpeed="1.44" waitingTime="0.00"/>
    </personinfo>
    <personinfo id="ped_W_to_E.4" depart="39.00" type="pedType" speedFactor="1.16" duration="156.00" waitingTime="0.00" timeLoss="17.86" traveltime="156.00">
        <walk depart="39.00" departPos="0.00" arrival="195.00" arrivalPos="92.84" duration="156.00" routeLength="223.50" timeLoss="17.86" maxSpeed="1.62" waitingTime="0.00"/>
    </personinfo>
    <tripinfo id="E_through.4" depart="130.00" departLane="-E7_1" departPos="185.58" departSpeed="0.00" departDelay="0.15" arrival="198.00" arrivalLane="-E7.68_1" arrivalPos="109.33" arrivalSpeed="12.70" duration="68.00" routeLength="130.54" waitingTime="49.00" waitingCount="1" stopTime="0.00" timeLoss="57.43" rerouteNo="0" devices="tripinfo_E_through.4" vType="toy_car" speedFactor="0.96" vaporized=""/>
    <tripinfo id="E_through.5" depart="141.00" departLane="-E7_1" departPos="86.98" departSpeed="13.00" departDelay="0.39" arrival="200.00" arrivalLane="-E7.68_1" arrivalPos="109.33" arrivalSpeed="12.76" duration="59.00" routeLength="229.14" waitingTime="25.00" waitingCount="1" stopTime="0.00" timeLoss="40.89" rerouteNo="0" devices="tripinfo_E_through.5" vType="toy_car" speedFactor="1.14" vaporized=""/>
    <tripinfo id="W_right.1" depart="129.00" departLane="E7_1" departPos="109.22" departSpeed="0.00" departDelay="0.09" arrival="201.00" arrivalLane="E8_1" arrivalPos="168.23" arrivalSpeed="12.77" duration="72.00" routeLength="177.40" waitingTime="50.00" waitingCount="1" stopTime="0.00" timeLoss="57.49" rerouteNo="0" devices="tripinfo_W_right.1" vType="toy_car" speedFactor="1.00" vaporized=""/>
    <tripinfo id="E_through.6" depart="147.00" departLane="-E7_1" departPos="84.33" departSpeed="12.58" departDelay="0.95" arrival="202.00" arrivalLane="-E7.68_1" arrivalPos="109.33" arrivalSpeed="12.50" duration="55.00" routeLength="231.79" waitingTime="20.00" waitingCount="1" stopTime="0.00" timeLoss="36.45" rerouteNo="0" devices="tripinfo_E_through.6" vType="toy_car" speedFactor="0.91" vaporized=""/>
    <personinfo id="ped_W_to_E.3" depart="29.00" type="pedType" speedFactor="1.02" duration="175.00" waitingTime="0.00" timeLoss="17.84" traveltime="175.00">
        <walk depart="29.00" departPos="0.00" arrival="204.00" arrivalPos="92.84" duration="175.00" routeLength="223.50" timeLoss="17.84" maxSpeed="1.42" waitingTime="0.00"/>
    </personinfo>
    <tripinfo id="W_through.13" depart="136.00" departLane="E7_1" departPos="10.62" departSpeed="13.00" departDelay="0.40" arrival="205.00" arrivalLane="E7.61_1" arrivalPos="185.68" arrivalSpeed="12.76" duration="69.00" routeLength="305.29" waitingTime="31.00" waitingCount="1" stopTime="0.00" timeLoss="45.41" rerouteNo="0" devices="tripinfo_W_through.13" vType="toy_car" speedFactor="1.12" vaporized=""/>
    <tripinfo id="E_through.7" depart="185.00" departLane="-E7_1" departPos="79.90" departSpeed="13.00" departDelay="0.38" arrival="205.00" arrivalLane="-E7.68_1" arrivalPos="109.33" arrivalSpeed="12.73" duration="20.00" routeLength="236.22" waitingTime="0.00" waitingCount="0" stopTime="0.00" timeLoss="1.76" rerouteNo="0" devices="tripinfo_E_through.7" vType="toy_car" speedFactor="1.15" vaporized=""/>
    <personinfo id="ped_N_to_S.2" depart="20.00" type="pedType" speedFactor="1.16" duration="188.00" waitingTime="0.00" timeLoss="19.07" traveltime="188.00">
        <walk depart="20.00" departPos="0.00" arrival="208.00" arrivalPos="84.11" duration="188.00" routeLength="272.59" timeLoss="19.07" maxSpeed="1.61" waitingTime="0.00"/>
    </personinfo>
    <tripinfo id="W_through.14" depart="137.00" departLane="E7_1" departPos="15.74" departSpeed="12.00" departDelay="0.32" arrival="208.00" arrivalLane="E7.61_1" arrivalPos="185.68" arrivalSpeed="11.67" duration="71.00" routeLength="300.17" waitingTime="31.00" waitingCount="1" stopTime="0.00" timeLoss="45.45" rerouteNo="0" devices="tripinfo_W_through.14" vType="toy_car" speedFactor="0.86" vaporized=""/>
    <tripinfo id="W_through.15" depart="184.00" departLane="E7_1" departPos="1.50" departSpeed="13.00" departDelay="43.74" arrival="210.00" arrivalLane="E7.61_1" arrivalPos="185.68" arrivalSpeed="12.88" duration="26.00" routeLength="314.41" waitingTime="0.00" waitingCount="0" stopTime="0.00" timeLoss="1.75" rerouteNo="0" devices="tripinfo_W_through.15" vType="toy_car" speedFactor="0.99" vaporized=""/>
    <tripinfo id="W_through.16" depart="188.00" departLane="E7_1" departPos="10.10" departSpeed="13.00" departDelay="35.03" arrival="213.00" arrivalLane="E7.61_1" arrivalPos="185.68" arrivalSpeed="12.76" duration="25.00" routeLength="305.81" waitingTime="0.00" waitingCount="0" stopTime="0.00" timeLoss="0.77" rerouteNo="0" devices="tripinfo_W_through.16" vType="toy_car" speedFactor="1.00" vaporized=""/>
    <tripinfo id="W_through.17" depart="189.00" departLane="E7_1" departPos="0.52" departSpeed="13.00" departDelay="35.65" arrival="215.00" arrivalLane="E7.61_1" arrivalPos="185.68" arrivalSpeed="12.94" duration="26.00" routeLength="315.39" waitingTime="0.00" waitingCount="0" stopTime="0.00" timeLoss="0.92" rerouteNo="0" devices="tripinfo_W_through.17" vType="toy_car" speedFactor="0.97" vaporized=""/>
    <tripinfo id="W_through.18" depart="192.00" departLane="E7_1" departPos="4.13" departSpeed="13.00" departDelay="38.22" arrival="217.00" arrivalLane="E7.61_1" arrivalPos="185.68" arrivalSpeed="12.76" duration="25.00" routeLength="311.78" waitingTime="0.00" waitingCount="0" stopTime="0.00" timeLoss="0.53" rerouteNo="0" devices="tripinfo_W_through.18" vType="toy_car" speedFactor="0.94" vaporized=""/>
    <tripinfo id="W_through.19" depart="194.00" departLane="E7_1" departPos="5.08" departSpeed="13.00" departDelay="39.97" arrival="219.00" arrivalLane="E7.61_1" arrivalPos="185.68" arrivalSpeed="12.96" duration="25.00" routeLength="310.83" waitingTime="0.00" waitingCount="0" stopTime="0.00" timeLoss="0.47" rerouteNo="0" devices="tripinfo_W_through.19" vType="toy_car" speedFactor="1.03" vaporized=""/>
    <tripinfo id="W_through.20" depart="196.00" departLane="E7_1" departPos="4.97" departSpeed="13.00" departDelay="37.85" arrival="221.00" arrivalLane="E7.61_1" arrivalPos="185.68" arrivalSpeed="12.92" duration="25.00" routeLength="310.94" waitingTime="0.00" waitingCount="0" stopTime="0.00" timeLoss="0.43" rerouteNo="0" devices="tripinfo_W_through.20" vType="toy_car" speedFactor="1.21" vaporized=""/>
    <tripinfo id="W_through.21" depart="198.00" departLane="E7_1" departPos="7.97" departSpeed="13.00" departDelay="31.30" arrival="223.00" arrivalLane="E7.61_1" arrivalPos="185.68" arrivalSpeed="12.89" duration="25.00" routeLength="307.94" waitingTime="0.00" waitingCount="0" stopTime="0.00" timeLoss="0.58" rerouteNo="0" devices="tripinfo_W_through.21" vType="toy_car" speedFactor="0.97" vaporized=""/>
    <personinfo id="ped_N_to_S.0" depart="0.00" type="pedType" speedFactor="0.95" duration="230.00" waitingTime="0.00" timeLoss="23.04" traveltime="230.00">
        <walk depart="0.00" departPos="0.00" arrival="230.00" arrivalPos="84.11" duration="230.00" routeLength="272.59" timeLoss="23.04" maxSpeed="1.32" waitingTime="0.00"/>
    </personinfo>
    <personinfo id="ped_N_to_S.1" depart="10.00" type="pedType" speedFactor="1.07" duration="220.00" waitingTime="0.00" timeLoss="36.94" traveltime="220.00">
        <walk depart="10.00" departPos="0.00" arrival="230.00" arrivalPos="84.11" duration="220.00" routeLength="272.59" timeLoss="36.94" maxSpeed="1.49" waitingTime="0.00"/>
    </personinfo>
    <personinfo id="ped_S_to_N.0" depart="0.00" type="pedType" speedFactor="0.95" duration="231.00" waitingTime="0.00" timeLoss="23.43" traveltime="231.00">
        <walk depart="0.00" departPos="0.00" arrival="231.00" arrivalPos="83.56" duration="231.00" routeLength="272.93" timeLoss="23.43" maxSpeed="1.31" waitingTime="0.00"/>
    </personinfo>
    <personinfo id="ped_E_to_W.2" depart="20.00" type="pedType" speedFactor="1.10" duration="212.00" waitingTime="18.00" timeLoss="39.99" traveltime="212.00">
        <walk depart="20.00" departPos="0.00" arrival="232.00" arrivalPos="54.66" duration="212.00" routeLength="262.01" timeLoss="39.99" maxSpeed="1.52" waitingTime="18.00"/>
    </personinfo>
    <tripinfo id="W_right.2" depart="198.00" departLane="E7_1" departPos="0.37" departSpeed="11.95" departDelay="17.04" arrival="236.00" arrivalLane="E8_1" arrivalPos="168.23" arrivalSpeed="11.72" duration="38.00" routeLength="286.25" waitingTime="0.00" waitingCount="0" stopTime="0.00" timeLoss="12.81" rerouteNo="0" devices="tripinfo_W_right.2" vType="toy_car" speedFactor="0.86" vaporized=""/>